#     Step Nr.          Time[fs]        Kin.[a.u.]          Temp[K]            Pot.[a.u.]        Cons Qty[a.u.]        UsedTime[s]
         0            0.000000         0.275037913       300.000000000     -1102.906648693     -1102.631610781         0.000000000
         1            0.500000         0.298855825       325.979595665     -1102.933030173     -1102.633955640       155.936749395
         2            1.000000         0.329253632       359.136268050     -1102.981487369     -1102.635468277        31.047927558
         3            1.500000         0.363337993       396.314082189     -1103.026755616     -1102.635549792        28.680220291
         4            2.000000         0.370804229       404.457944568     -1103.057004270     -1102.635666554        30.281394631
         5            2.500000         0.391114439       426.611482633     -1103.076608604     -1102.635704197        31.025424398
         6            3.000000         0.406185419       443.050286055     -1103.082595680     -1102.635508581        20.370772999
         7            3.500000         0.384315375       419.195343990     -1103.077819804     -1102.635129221        15.578448404
         8            4.000000         0.361383509       394.182211579     -1103.070679523     -1102.634777068        14.011221379
         9            4.500000         0.364957636       398.080722355     -1103.064813493     -1102.634553971        10.716047835
        10            5.000000         0.355914253       388.216572814     -1103.060884099     -1102.634459137        11.706843209
        11            5.500000         0.351846626       383.779773165     -1103.061146245     -1102.634564270         9.109488528
        12            6.000000         0.346789248       378.263394407     -1103.062088533     -1102.634709331         9.109664269
        13            6.500000         0.334769590       365.152847544     -1103.065540287     -1102.634877456         9.105199486
        14            7.000000         0.327168436       356.861822500     -1103.069730773     -1102.635044828         8.317390829
        15            7.500000         0.342349369       373.420558046     -1103.070786728     -1102.635075408         8.302471314
        16            8.000000         0.352800831       384.820581372     -1103.074248126     -1102.635057367         8.304457154
        17            8.500000         0.331241562       361.304620481     -1103.074293271     -1102.634911966         8.305833485
        18            9.000000         0.319710900       348.727450078     -1103.074750722     -1102.634881467         8.293154690
        19            9.500000         0.322905207       352.211669018     -1103.075095139     -1102.634976984         9.109258246
        20           10.000000         0.317860994       346.709648845     -1103.073680121     -1102.635096700        11.187732525
        21           10.500000         0.316864325       345.622524327     -1103.071997380     -1102.635089168         9.137069046
        22           11.000000         0.317643210       346.472099983     -1103.070203833     -1102.635026578         8.317927733
        23           11.500000         0.311687629       339.975997554     -1103.071835669     -1102.634991032         9.112917423
        24           12.000000         0.307626527       335.546315634     -1103.075388238     -1102.634931749         9.139936469
        25           12.500000         0.297145236       324.113755773     -1103.080325775     -1102.635000599         9.129810803
        26           13.000000         0.292403161       318.941296356     -1103.087169373     -1102.635130781         8.312480688
        27           13.500000         0.316683139       345.424893182     -1103.093409961     -1102.635157754         8.315264869
        28           14.000000         0.315860894       344.528022955     -1103.100329098     -1102.635141001         8.333369307
        29           14.500000         0.322517193       351.788439225     -1103.108512555     -1102.635165518         8.304542769
        30           15.000000         0.337451712       368.078395207     -1103.114482291     -1102.635209477        11.097971175
        31           15.500000         0.348558958       380.193720714     -1103.119443547     -1102.635277976         8.311819505
        32           16.000000         0.337744180       368.397407706     -1103.120317856     -1102.635317108         8.320743322
        33           16.500000         0.320945982       350.074627221     -1103.119833119     -1102.635295999         8.328710064
        34           17.000000         0.322095461       351.328431022     -1103.120181781     -1102.635269089         8.314084865
        35           17.500000         0.317928017       346.782755167     -1103.121401270     -1102.635264405         8.297697220
        36           18.000000         0.310720959       338.921593334     -1103.123845272     -1102.635314600         8.284451082
        37           18.500000         0.319712410       348.729097215     -1103.123996021     -1102.635320021         8.282562353
        38           19.000000         0.307680318       335.604987917     -1103.121893623     -1102.635308865         8.269264929
        39           19.500000         0.316455085       345.176141371     -1103.124350237     -1102.635391857         8.297695428
        40           20.000000         0.311378934       339.639285386     -1103.126726907     -1102.635419659        10.624607861
        41           20.500000         0.317493144       346.308414074     -1103.130269319     -1102.635472177         8.331206750
        42           21.000000         0.309219499       337.283863292     -1103.134704963     -1102.635609767         8.344995435
        43           21.500000         0.309816309       337.934839058     -1103.136537503     -1102.635657781         8.318299528
        44           22.000000         0.307969831       335.920777351     -1103.137227878     -1102.635690096         8.312274985
        45           22.500000         0.297565675       324.572352790     -1103.136936737     -1102.635746193         8.327751122
        46           23.000000         0.286441625       312.438699168     -1103.133631525     -1102.635719305         8.321537346
        47           23.500000         0.273495207       298.317280835     -1103.133025988     -1102.635732345         8.313766859
        48           24.000000         0.290279643       316.625050494     -1103.134400213     -1102.635803011         8.335873660
        49           24.500000         0.287613690       313.717139056     -1103.134394570     -1102.635855775         8.351311792
        50           25.000000         0.283674170       309.420073142     -1103.132290849     -1102.635871241        10.755336318
        51           25.500000         0.268873651       293.276277478     -1103.130018491     -1102.635855325         8.301751360
        52           26.000000         0.275889442       300.928813208     -1103.130522095     -1102.635835815         8.320205547
        53           26.500000         0.278527754       303.806575184     -1103.127849609     -1102.635722991         8.332519706
        54           27.000000         0.286518893       312.522979382     -1103.128122689     -1102.635620981         8.312943853
        55           27.500000         0.278902097       304.214892800     -1103.130376006     -1102.635561079         8.316001285
        56           28.000000         0.277217628       302.377543728     -1103.138380244     -1102.635662371         8.329432461
        57           28.500000         0.283206402       308.909850589     -1103.149324726     -1102.635877583         8.319946248
        58           29.000000         0.293346443       319.970189258     -1103.156019190     -1102.635939037         8.314290524
        59           29.500000         0.308420066       336.411874409     -1103.163429267     -1102.636006340         8.328446176
        60           30.000000         0.310664340       338.859836157     -1103.167935294     -1102.636051647        10.620107882
        61           30.500000         0.301301874       328.647644605     -1103.169948176     -1102.636057389         8.305766836
        62           31.000000         0.298722419       325.834081959     -1103.168265230     -1102.635956094         8.316933241
        63           31.500000         0.302668665       330.138484404     -1103.166760909     -1102.635869149         8.330552854
        64           32.000000         0.310663011       338.858386794     -1103.167587915     -1102.635812612         8.354119357
        65           32.500000         0.313086959       341.502329205     -1103.168618097     -1102.635790009         8.341765225
        66           33.000000         0.314174306       342.688362292     -1103.168124371     -1102.635713134         8.322007556
        67           33.500000         0.317206014       345.995224190     -1103.170196700     -1102.635702786         8.295169964
        68           34.000000         0.325701335       355.261569178     -1103.175466442     -1102.635798091         8.309268959
        69           34.500000         0.350991234       382.846747407     -1103.181170923     -1102.635899204         8.318772186
        70           35.000000         0.354791019       386.991396266     -1103.184034005     -1102.635928458        11.474912692
        71           35.500000         0.344080563       375.308872975     -1103.184690573     -1102.635874303         7.508954003
        72           36.000000         0.329722496       359.647686061     -1103.184518468     -1102.635804665         7.505683787
        73           36.500000         0.327050614       356.733307840     -1103.182757046     -1102.635750520         8.333654076
        74           37.000000         0.307145598       335.021737372     -1103.181132955     -1102.635693432         8.326800011
        75           37.500000         0.321897711       351.112733946     -1103.182331545     -1102.635748289         8.320838176
        76           38.000000         0.300520430       327.795277659     -1103.183622947     -1102.635823855         7.500587307
        77           38.500000         0.295345809       322.151015383     -1103.187278335     -1102.635918931         7.515194498
        78           39.000000         0.306221032       334.013259263     -1103.190371249     -1102.635976010         7.514475867
        79           39.500000         0.319205394       348.176065654     -1103.190663413     -1102.635938581         7.510816745
        80           40.000000         0.301132779       328.463202838     -1103.187340276     -1102.635786061        11.160843905
        81           40.500000         0.320780274       349.893878822     -1103.184393534     -1102.635637306         7.518902842
        82           41.000000         0.302503429       329.958251401     -1103.183499134     -1102.635538398         7.504087776
        83           41.500000         0.311476009       339.745171140     -1103.186785205     -1102.635576879         7.496296450
        84           42.000000         0.330944544       360.980645950     -1103.191337088     -1102.635689396         7.505915124
        85           42.500000         0.333719491       364.007442950     -1103.194679256     -1102.635772594         7.515086252
        86           43.000000         0.324018675       353.426193238     -1103.198718181     -1102.635857434         7.504256841
        87           43.500000         0.316345286       345.056377754     -1103.202274562     -1102.635939677         7.494090408
        88           44.000000         0.327713906       357.456798415     -1103.205043013     -1102.635956749         7.497215565
        89           44.500000         0.327945061       357.708932787     -1103.205402255     -1102.635916785         7.501033235
        90           45.000000         0.310515921       338.697947142     -1103.202525610     -1102.635830464        10.114997242
        91           45.500000         0.305724598       333.471769464     -1103.199795621     -1102.635751172         7.496775936
        92           46.000000         0.292774242       319.346055559     -1103.197383586     -1102.635669816         7.526624106
        93           46.500000         0.295518194       322.339045100     -1103.193517200     -1102.635586834         7.519520056
        94           47.000000         0.284077355       309.859851075     -1103.189980863     -1102.635506521         7.505350120
        95           47.500000         0.287417514       313.503157777     -1103.189679966     -1102.635519697         7.484212950
        96           48.000000         0.284817320       310.666973538     -1103.188009340     -1102.635503343         7.513025623
        97           48.500000         0.297014525       323.971182077     -1103.187321139     -1102.635483896         8.315842409
        98           49.000000         0.287769115       313.886670068     -1103.185939103     -1102.635454312         8.317766454
        99           49.500000         0.289188611       315.434997913     -1103.186879393     -1102.635541368         8.324119389
       100           50.000000         0.275870811       300.908490799     -1103.188597502     -1102.635665854        10.079776529
       101           50.500000         0.285941994       311.893722129     -1103.189704550     -1102.635706112         7.503515445
       102           51.000000         0.297849159       324.881565488     -1103.188978009     -1102.635653857         7.499863341
       103           51.500000         0.288900346       315.120570585     -1103.184622903     -1102.635520583         7.501625866
       104           52.000000         0.281354778       306.890176094     -1103.179592359     -1102.635384249         7.506828289
       105           52.500000         0.279189576       304.528463052     -1103.176286034     -1102.635294796         7.504081927
       106           53.000000         0.284974983       310.838945659     -1103.179708131     -1102.635434108         7.498957720
       107           53.500000         0.294137437       320.832973105     -1103.184540647     -1102.635631974         7.511491388
       108           54.000000         0.299632450       326.826706366     -1103.189222959     -1102.635802280         7.511543617
       109           54.500000         0.303129945       330.641629311     -1103.192362005     -1102.635855755         7.503946684
       110           55.000000         0.284833422       310.684537080     -1103.190018057     -1102.635771959        10.644914690
       111           55.500000         0.278078890       303.316972994     -1103.185698400     -1102.635673737         7.511541937
       112           56.000000         0.293399279       320.027820674     -1103.182638909     -1102.635622620         7.503280442
       113           56.500000         0.270691562       295.259179904     -1103.179896769     -1102.635611910         7.495355751
       114           57.000000         0.272104417       296.800264402     -1103.175384608     -1102.635545019         8.306519795
       115           57.500000         0.269530621       293.992874266     -1103.173634990     -1102.635502980         7.516819570
       116           58.000000         0.279442117       304.803924290     -1103.173184169     -1102.635476770         7.487162251
       117           58.500000         0.267177396       291.426073365     -1103.176762408     -1102.635533455         7.492926903
       118           59.000000         0.280281403       305.719382641     -1103.179640625     -1102.635603874         7.494817551
       119           59.500000         0.299002003       326.139040746     -1103.181754221     -1102.635702038         7.515567847
       120           60.000000         0.292400421       318.938307744     -1103.181812467     -1102.635721109         9.936224606
       121           60.500000         0.290703254       317.087107925     -1103.179789643     -1102.635667294         7.499755349
       122           61.000000         0.293679036       320.332967818     -1103.177987667     -1102.635590890         7.526047826
       123           61.500000         0.285349512       311.247467377     -1103.177723627     -1102.635561812         8.329154428
       124           62.000000         0.283060184       308.750362058     -1103.178897719     -1102.635588438         7.501889847
       125           62.500000         0.295752584       322.594708371     -1103.183320710     -1102.635697758         7.508654799
       126           63.000000         0.293417867       320.048095193     -1103.186332380     -1102.635754878         7.487172928
       127           63.500000         0.304841849       332.508903894     -1103.188217352     -1102.635762079         7.505063411
       128           64.000000         0.304205279       331.814558686     -1103.185223467     -1102.635635756         7.477072738
       129           64.500000         0.295410300       322.221359423     -1103.182089933     -1102.635536685         7.465763547
       130           65.000000         0.299931060       327.152417098     -1103.182295676     -1102.635522526         9.798314407
       131           65.500000         0.292956432       319.544781602     -1103.183332153     -1102.635528272         7.483363554
       132           66.000000         0.302063996       329.478936212     -1103.186209589     -1102.635598351         7.504574355
       133           66.500000         0.314037722       342.539382485     -1103.187182277     -1102.635676485         7.478518266
       134           67.000000         0.313577816       342.037735990     -1103.188325077     -1102.635710024         7.482860096
       135           67.500000         0.321244988       350.400770378     -1103.187302932     -1102.635604514         7.476956248
       136           68.000000         0.323320546       352.664703217     -1103.184822681     -1102.635385983         7.474122208
       137           68.500000         0.318276734       347.163121282     -1103.184538593     -1102.635272269         7.488183480
       138           69.000000         0.300051439       327.283721528     -1103.188059242     -1102.635383328         7.484402452
       139           69.500000         0.291782330       318.264118946     -1103.194119049     -1102.635566845         7.486667149
       140           70.000000         0.320546061       349.638409331     -1103.202226226     -1102.635751897        10.065950841
       141           70.500000         0.305025908       332.709667823     -1103.206812519     -1102.635804562         7.488054018
       142           71.000000         0.319411418       348.400787862     -1103.206157495     -1102.635732518         7.487171922
       143           71.500000         0.295495032       322.313781396     -1103.203909084     -1102.635646883         7.464459341
       144           72.000000         0.303595765       331.149726576     -1103.200838009     -1102.635541492         7.474457093
       145           72.500000         0.299467004       326.646244544     -1103.199848504     -1102.635514670         7.450077336
       146           73.000000         0.286854113       312.888624124     -1103.203068744     -1102.635637703         7.465900399
       147           73.500000         0.297176293       324.147631040     -1103.205256274     -1102.635814226         7.481157113
       148           74.000000         0.301918918       329.320690504     -1103.204169618     -1102.635868508         7.475385789
       149           74.500000         0.309704330       337.812696753     -1103.198420903     -1102.635748838         7.484411195
       150           75.000000         0.302104179       329.522765546     -1103.194245636     -1102.635625190        11.720124707
       151           75.500000         0.292956501       319.544856613     -1103.188559157     -1102.635488375         7.483160835
       152           76.000000         0.285207328       311.092378220     -1103.185018161     -1102.635439499         7.493478522
       153           76.500000         0.290238811       316.580512661     -1103.181323982     -1102.635391765         7.482788205
       154           77.000000         0.268953201       293.363047803     -1103.178246558     -1102.635369272         7.494789816
       155           77.500000         0.261340925       285.059891075     -1103.179328521     -1102.635381929         7.475437064
       156           78.000000         0.260693744       284.353973436     -1103.181349646     -1102.635431371         7.474894185
       157           78.500000         0.261651372       285.398514543     -1103.186537026     -1102.635525396         7.494853638
       158           79.000000         0.289538679       315.816837654     -1103.192568327     -1102.635669286         7.450729802
       159           79.500000         0.299901054       327.119688356     -1103.194125826     -1102.635723322         7.481169671
       160           80.000000         0.289053746       315.287891982     -1103.192212366     -1102.635697578        10.485942636
       161           80.500000         0.280635438       306.105549634     -1103.188874923     -1102.635617925         7.474507205
       162           81.000000         0.274597177       299.519264289     -1103.184919175     -1102.635486456         7.493000992
       163           81.500000         0.294729629       321.478911071     -1103.181466419     -1102.635357319         7.480715740
       164           82.000000         0.289805847       316.108253515     -1103.181191727     -1102.635280206         7.496024888
       165           82.500000         0.293576423       320.221041650     -1103.181163471     -1102.635225855         7.482844632
       166           83.000000         0.295573350       322.399207698     -1103.186668216     -1102.635363325         7.468881670
       167           83.500000         0.299796764       327.005933413     -1103.193932273     -1102.635555470         7.478262506
       168           84.000000         0.308747224       336.768725140     -1103.198472059     -1102.635681719         7.504912429
       169           84.500000         0.299480058       326.660482782     -1103.196470091     -1102.635673872         7.485313192
       170           85.000000         0.307249679       335.135264443     -1103.192103147     -1102.635595547        10.439097174
       171           85.500000         0.268566528       292.941281384     -1103.184280423     -1102.635419993         7.485247973
       172           86.000000         0.266556269       290.748573098     -1103.179259592     -1102.635319455         7.499648467
       173           86.500000         0.272972200       297.746805715     -1103.178000560     -1102.635324731         8.292077862
       174           87.000000         0.268359573       292.715543205     -1103.177234859     -1102.635350079         7.465414084
       175           87.500000         0.263994718       287.954539280     -1103.178933568     -1102.635425441         7.476046119
       176           88.000000         0.266709094       290.915268315     -1103.180790749     -1102.635468698         7.595742896
       177           88.500000         0.277056824       302.202144821     -1103.184697985     -1102.635531104         7.467830818
       178           89.000000         0.281753814       307.325427989     -1103.185766029     -1102.635513208         7.512135670
       179           89.500000         0.291273850       317.709490091     -1103.186787022     -1102.635477953         7.469722968
       180           90.000000         0.307889411       335.833058691     -1103.190317136     -1102.635502413         9.849822193
       181           90.500000         0.310387314       338.557667910     -1103.192653108     -1102.635563793         7.476539377
       182           91.000000         0.301074038       328.399131111     -1103.196705018     -1102.635643379         7.581653483
       183           91.500000         0.306780308       334.623294208     -1103.197050386     -1102.635596282         7.522269253
       184           92.000000         0.298674205       325.781492502     -1103.197927891     -1102.635534763         7.501563817
       185           92.500000         0.294879457       321.642337502     -1103.200731052     -1102.635621838         7.515251663
       186           93.000000         0.311683981       339.972017967     -1103.203032067     -1102.635729126         7.510398626
       187           93.500000         0.304488991       332.124020440     -1103.203983435     -1102.635813854         7.511759833
       188           94.000000         0.304190027       331.797922871     -1103.201610772     -1102.635769026         7.559532542
       189           94.500000         0.296932618       323.881841272     -1103.196987189     -1102.635643787         7.509450585
       190           95.000000         0.281469779       307.015614454     -1103.190475276     -1102.635433257        10.025863901
       191           95.500000         0.274370798       299.272338828     -1103.183848409     -1102.635230091         7.523897268
       192           96.000000         0.264716870       288.742232584     -1103.182965491     -1102.635223276         7.515579771
       193           96.500000         0.278134836       303.377996283     -1103.186205148     -1102.635327148         7.512967464
       194           97.000000         0.278814641       304.119499840     -1103.193333454     -1102.635512642         7.507209070
       195           97.500000         0.297998632       325.044604354     -1103.199368009     -1102.635626304         7.517650001
       196           98.000000         0.298225398       325.291951930     -1103.201658828     -1102.635623880         7.506781723
       197           98.500000         0.290455546       316.816918333     -1103.199696132     -1102.635532592         7.506038141
       198           99.000000         0.283968783       309.741424441     -1103.197113914     -1102.635424174         7.523863629
       199           99.500000         0.275366189       300.358069954     -1103.194660817     -1102.635339773         7.531706478
       200          100.000000         0.277099143       302.248304657     -1103.191092959     -1102.635262459        10.556850899
       201          100.500000         0.271128683       295.735973604     -1103.189000114     -1102.635264822         7.603719421
       202          101.000000         0.278943039       304.259550314     -1103.191298882     -1102.635391159         7.511887006
       203          101.500000         0.283487930       309.216929618     -1103.190282330     -1102.635374337         7.512840528
       204          102.000000         0.290370140       316.723761147     -1103.191171951     -1102.635308951         7.530201361
       205          102.500000         0.302506304       329.961387782     -1103.192614296     -1102.635222096         7.487531163
       206          103.000000         0.309061321       337.111329353     -1103.196291091     -1102.635249982         7.507730424
       207          103.500000         0.300620766       327.904720755     -1103.200981337     -1102.635343066         7.510595743
       208          104.000000         0.302924810       330.417876340     -1103.204164814     -1102.635473267         7.505028106
       209          104.500000         0.299193712       326.348148998     -1103.206511274     -1102.635584599         7.527123377
       210          105.000000         0.294079137       320.769381884     -1103.206116456     -1102.635661974        10.503676295
       211          105.500000         0.299713972       326.915627130     -1103.201156539     -1102.635575997         7.517434180
       212          106.000000         0.287892809       314.021590564     -1103.195409692     -1102.635439934         7.479678228
       213          106.500000         0.279044452       304.370167798     -1103.190669174     -1102.635328520         7.516196787
       214          107.000000         0.285226181       311.112942143     -1103.187926033     -1102.635311829         7.507024851
       215          107.500000         0.278706068       304.001072560     -1103.188637190     -1102.635400159         7.496622808
       216          108.000000         0.280283518       305.721689801     -1103.190970868     -1102.635533726         7.500430044
       217          108.500000         0.293500864       320.138624838     -1103.193054428     -1102.635589619         7.533644360
       218          109.000000         0.275892968       300.932659228     -1103.193141538     -1102.635570895         7.509861074
       219          109.500000         0.268204047       292.545901975     -1103.191053922     -1102.635536369         7.555219613
       220          110.000000         0.284097531       309.881857681     -1103.191132930     -1102.635537513        10.613543518
       221          110.500000         0.280957269       306.456589408     -1103.191258025     -1102.635524602         7.518500015
       222          111.000000         0.264386317       288.381679010     -1103.191005065     -1102.635465552         7.506109811
       223          111.500000         0.269974788       294.477352385     -1103.190717320     -1102.635437045         7.502104588
       224          112.000000         0.266502405       290.689820523     -1103.190888101     -1102.635448991         7.512758080
       225          112.500000         0.272495002       297.226298499     -1103.193903416     -1102.635515678         7.496021371
       226          113.000000         0.277154416       302.308594501     -1103.194655116     -1102.635492349         7.514048625
       227          113.500000         0.290144186       316.477299085     -1103.197836423     -1102.635472203         7.514623798