
include ${pot}.lmp
include kalj.lmp
units lj
atom_style atomic

variable dimensions equal 3
variable density equal 1.2
variable fraca equal 0.8

dimension ${dimensions}
dimension 3
read_restart ${prevbasename}.final.lmprestart.${steps}
read_restart equil/kalj_T1.5_n480_v400_10000_1.final.lmprestart.${steps}
read_restart equil/kalj_T1.5_n480_v400_10000_1.final.lmprestart.10000
Reading restart file ...
  restart file = 15 Sep 2022, LAMMPS = 15 Sep 2022
  restoring atom style atomic from restart
  orthogonal box = (0 0 0) to (7.368063 7.368063 7.368063)
  1 by 2 by 2 MPI processor grid
  restoring pair style lj/cut from restart
  480 atoms
  read_restart CPU = 0.094 seconds
include ${pot}_particles.lmp
include kalj_particles.lmp
mass * 1.0 #  set mass 1.0 for all types

pair_style lj/cut 2.5
#pair coeffs type1 type2 eps sigma
pair_coeff 1 1 1.0 1.00 2.5
pair_coeff 1 2 1.5 0.80 2.0
pair_coeff 2 2 0.5 0.88 2.2
pair_modify shift yes
reset_timestep 0

print "Setting up equilibration run"
Setting up equilibration run
variable dumptime2 equal ${steps}/2000
variable dumptime2 equal 10000/2000
dump 1 all dcd ${dumptime2} ${basename}.unwrap.dcd
dump 1 all dcd 5 ${basename}.unwrap.dcd
dump 1 all dcd 5 prod/kalj_T1.5_n480_v400_prod_10000_1.unwrap.dcd
#dump 2 all dcd ${dumptime2} ${basename}.dcd
dump_modify 1 unwrap yes
#dump_modify 2 unwrap no

restart ${restarttime} ${basename}.restart
restart 10000 ${basename}.restart
restart 10000 prod/kalj_T1.5_n480_v400_prod_10000_1.restart
restart ${steps} ${basename}.final.lmprestart
restart 10000 ${basename}.final.lmprestart
restart 10000 prod/kalj_T1.5_n480_v400_prod_10000_1.final.lmprestart

thermo ${thermotime}
thermo 1000
timestep ${timestep}
timestep 0.002

neighbor 0.5 bin
neigh_modify every 1 delay ${neighborstep} check yes
neigh_modify every 1 delay 20 check yes

#velocity all create ${temp} ${id} dist gaussian
fix 1 all nvt temp ${temp} ${temp} ${taut}
fix 1 all nvt temp 1.5 ${temp} ${taut}
fix 1 all nvt temp 1.5 1.5 ${taut}
fix 1 all nvt temp 1.5 1.5 0.2
Resetting global fix info from restart file:
  fix style: nvt, fix ID: 1

variable steps4 equal ${steps}/4
variable steps4 equal 10000/4
run ${steps4}
run 2500
Generated 0 of 1 mixed pair_coeff terms from geometric mixing rule
All restart file global fix info was re-assigned
Neighbor list info ...
  update: every = 1 steps, delay = 20 steps, check = yes
  max neighbors/atom: 2000, page size: 100000
  master list distance cutoff = 3
  ghost atom cutoff = 3
  binsize = 1.5, bins = 5 5 5
  1 neighbor lists, perpetual/occasional/extra = 1 0 0
  (1) pair lj/cut, perpetual
      attributes: half, newton on
      pair build: half/bin/atomonly/newton
      stencil: half/bin/3d
      bin: standard
Per MPI rank memory allocation (min/avg/max) = 3.147 | 3.147 | 3.147 Mbytes
   Step          Temp          E_pair         E_mol          TotEng         Press     
         0   1.5455863     -5.2724744      0             -2.9589249      15.073274    
      1000   1.5233029     -5.3210344      0             -3.0408403      15.026716    
      2000   1.5059367     -5.3053005      0             -3.0511015      14.771       
      2500   1.5409763     -5.2419338      0             -2.9352849      15.11035     
Loop time of 0.309304 on 4 procs for 2500 steps with 480 atoms

Performance: 1396683.030 tau/day, 8082.656 timesteps/s, 3.880 Matom-step/s
98.9% CPU use with 4 MPI tasks x 1 OpenMP threads

MPI task timing breakdown:
Section |  min time  |  avg time  |  max time  |%varavg| %total
---------------------------------------------------------------
Pair    | 0.17546    | 0.18699    | 0.19681    |   1.8 | 60.45
Neigh   | 0.020512   | 0.021414   | 0.021917   |   0.4 |  6.92
Comm    | 0.066107   | 0.075052   | 0.082918   |   2.3 | 24.26
Output  | 0.010909   | 0.013791   | 0.019733   |   3.0 |  4.46
Modify  | 0.0067379  | 0.007497   | 0.008079   |   0.6 |  2.42
Other   |            | 0.004561   |            |       |  1.47

Nlocal:            120 ave         124 max         113 min
Histogram: 1 0 0 0 0 0 1 0 0 2
Nghost:           1387 ave        1416 max        1357 min
Histogram: 1 0 0 1 0 0 1 0 0 1
Neighs:        6925.75 ave        7095 max        6654 min
Histogram: 1 0 0 0 0 0 0 2 0 1

Total # of neighbors = 27703
Ave neighs/atom = 57.714583
Neighbor list builds = 88
Dangerous builds = 0
Total wall time: 0:00:00
