
include ${pot}.lmp
include kalj.lmp
units lj
atom_style atomic

variable dimensions equal 3
variable density equal 1.2
variable fraca equal 0.8

dimension ${dimensions}
dimension 3
read_restart ${prevbasename}.final.lmprestart.${steps}
read_restart equil/kalj_T0.65_n480_v400_350000_1.final.lmprestart.${steps}
read_restart equil/kalj_T0.65_n480_v400_350000_1.final.lmprestart.350000
Reading restart file ...
  restart file = 15 Sep 2022, LAMMPS = 15 Sep 2022
  restoring atom style atomic from restart
  orthogonal box = (0 0 0) to (7.368063 7.368063 7.368063)
  1 by 2 by 2 MPI processor grid
  restoring pair style lj/cut from restart
  480 atoms
  read_restart CPU = 0.029 seconds
include ${pot}_particles.lmp
include kalj_particles.lmp
mass * 1.0 #  set mass 1.0 for all types

pair_style lj/cut 2.5
#pair coeffs type1 type2 eps sigma
pair_coeff 1 1 1.0 1.00 2.5
pair_coeff 1 2 1.5 0.80 2.0
pair_coeff 2 2 0.5 0.88 2.2
pair_modify shift yes
reset_timestep 0

print "Setting up equilibration run"
Setting up equilibration run
variable dumptime2 equal ${steps}/2000
variable dumptime2 equal 350000/2000
dump 1 all dcd ${dumptime2} ${basename}.unwrap.dcd
dump 1 all dcd 175 ${basename}.unwrap.dcd
dump 1 all dcd 175 prod/kalj_T0.65_n480_v400_prod_350000_1.unwrap.dcd
#dump 2 all dcd ${dumptime2} ${basename}.dcd
dump_modify 1 unwrap yes
#dump_modify 2 unwrap no

restart ${restarttime} ${basename}.restart
restart 350000 ${basename}.restart
restart 350000 prod/kalj_T0.65_n480_v400_prod_350000_1.restart
restart ${steps} ${basename}.final.lmprestart
restart 350000 ${basename}.final.lmprestart
restart 350000 prod/kalj_T0.65_n480_v400_prod_350000_1.final.lmprestart

thermo ${thermotime}
thermo 70000
timestep ${timestep}
timestep 0.003

neighbor 0.5 bin
neigh_modify every 1 delay ${neighborstep} check yes
neigh_modify every 1 delay 25 check yes

#velocity all create ${temp} ${id} dist gaussian
fix 1 all nvt temp ${temp} ${temp} ${taut}
fix 1 all nvt temp 0.65 ${temp} ${taut}
fix 1 all nvt temp 0.65 0.65 ${taut}
fix 1 all nvt temp 0.65 0.65 0.3
Resetting global fix info from restart file:
  fix style: nvt, fix ID: 1

variable steps4 equal ${steps}/4
variable steps4 equal 350000/4
run ${steps4}
run 87500
Generated 0 of 1 mixed pair_coeff terms from geometric mixing rule
All restart file global fix info was re-assigned
Neighbor list info ...
  update: every = 1 steps, delay = 25 steps, check = yes
  max neighbors/atom: 2000, page size: 100000
  master list distance cutoff = 3
  ghost atom cutoff = 3
  binsize = 1.5, bins = 5 5 5
  1 neighbor lists, perpetual/occasional/extra = 1 0 0
  (1) pair lj/cut, perpetual
      attributes: half, newton on
      pair build: half/bin/atomonly/newton
      stencil: half/bin/3d
      bin: standard
Per MPI rank memory allocation (min/avg/max) = 3.147 | 3.147 | 3.148 Mbytes
   Step          Temp          E_pair         E_mol          TotEng         Press     
         0   0.6675991     -6.5984035      0             -5.5990911      5.8530659    
     70000   0.64528806    -6.6361209      0             -5.6702054      5.4837272    
     87500   0.66490459    -6.5253496      0             -5.5300705      6.4715487    
Loop time of 9.93649 on 4 procs for 87500 steps with 480 atoms

Performance: 2282496.619 tau/day, 8805.928 timesteps/s, 4.227 Matom-step/s
99.5% CPU use with 4 MPI tasks x 1 OpenMP threads

MPI task timing breakdown:
Section |  min time  |  avg time  |  max time  |%varavg| %total
---------------------------------------------------------------
Pair    | 6.4004     | 6.573      | 6.8346     |   7.1 | 66.15
Neigh   | 0.67636    | 0.68101    | 0.68518    |   0.5 |  6.85
Comm    | 2.0317     | 2.2875     | 2.4552     |  11.8 | 23.02
Output  | 0.064679   | 0.068777   | 0.077506   |   2.0 |  0.69
Modify  | 0.24152    | 0.24735    | 0.2541     |   0.9 |  2.49
Other   |            | 0.07889    |            |       |  0.79

Nlocal:            120 ave         124 max         117 min
Histogram: 1 1 0 0 0 1 0 0 0 1
Nghost:        1377.75 ave        1391 max        1363 min
Histogram: 1 0 0 0 0 1 1 0 0 1
Neighs:           6939 ave        7256 max        6728 min
Histogram: 1 1 0 0 1 0 0 0 0 1

Total # of neighbors = 27756
Ave neighs/atom = 57.825
Neighbor list builds = 2831
Dangerous builds = 133
Total wall time: 0:00:09
