
include ${pot}.lmp
include kalj.lmp
units lj
atom_style atomic

variable dimensions equal 3
variable density equal 1.2
variable fraca equal 0.8

dimension ${dimensions}
dimension 3
read_restart ${prevbasename}.final.lmprestart.${steps}
read_restart equil/kalj_T0.6_n480_v400_1000000_1.final.lmprestart.${steps}
read_restart equil/kalj_T0.6_n480_v400_1000000_1.final.lmprestart.1000000
Reading restart file ...
  restart file = 15 Sep 2022, LAMMPS = 15 Sep 2022
  restoring atom style atomic from restart
  orthogonal box = (0 0 0) to (7.368063 7.368063 7.368063)
  1 by 2 by 2 MPI processor grid
  restoring pair style lj/cut from restart
  480 atoms
  read_restart CPU = 0.018 seconds
include ${pot}_particles.lmp
include kalj_particles.lmp
mass * 1.0 #  set mass 1.0 for all types

pair_style lj/cut 2.5
#pair coeffs type1 type2 eps sigma
pair_coeff 1 1 1.0 1.00 2.5
pair_coeff 1 2 1.5 0.80 2.0
pair_coeff 2 2 0.5 0.88 2.2
pair_modify shift yes
reset_timestep 0

print "Setting up equilibration run"
Setting up equilibration run
variable dumptime2 equal ${steps}/2000
variable dumptime2 equal 1000000/2000
dump 1 all dcd ${dumptime2} ${basename}.unwrap.dcd
dump 1 all dcd 500 ${basename}.unwrap.dcd
dump 1 all dcd 500 prod/kalj_T0.6_n480_v400_prod_1000000_1.unwrap.dcd
#dump 2 all dcd ${dumptime2} ${basename}.dcd
dump_modify 1 unwrap yes
#dump_modify 2 unwrap no

restart ${restarttime} ${basename}.restart
restart 1000000 ${basename}.restart
restart 1000000 prod/kalj_T0.6_n480_v400_prod_1000000_1.restart
restart ${steps} ${basename}.final.lmprestart
restart 1000000 ${basename}.final.lmprestart
restart 1000000 prod/kalj_T0.6_n480_v400_prod_1000000_1.final.lmprestart

thermo ${thermotime}
thermo 50000
timestep ${timestep}
timestep 0.003

neighbor 0.5 bin
neigh_modify every 1 delay ${neighborstep} check yes
neigh_modify every 1 delay 25 check yes

#velocity all create ${temp} ${id} dist gaussian
fix 1 all nvt temp ${temp} ${temp} ${taut}
fix 1 all nvt temp 0.6 ${temp} ${taut}
fix 1 all nvt temp 0.6 0.6 ${taut}
fix 1 all nvt temp 0.6 0.6 0.3
Resetting global fix info from restart file:
  fix style: nvt, fix ID: 1

variable steps4 equal ${steps}/4
variable steps4 equal 1000000/4
run ${steps4}
run 250000
Generated 0 of 1 mixed pair_coeff terms from geometric mixing rule
All restart file global fix info was re-assigned
Neighbor list info ...
  update: every = 1 steps, delay = 25 steps, check = yes
  max neighbors/atom: 2000, page size: 100000
  master list distance cutoff = 3
  ghost atom cutoff = 3
  binsize = 1.5, bins = 5 5 5
  1 neighbor lists, perpetual/occasional/extra = 1 0 0
  (1) pair lj/cut, perpetual
      attributes: half, newton on
      pair build: half/bin/atomonly/newton
      stencil: half/bin/3d
      bin: standard
Per MPI rank memory allocation (min/avg/max) = 3.147 | 3.147 | 3.147 Mbytes
   Step          Temp          E_pair         E_mol          TotEng         Press     
         0   0.59059704    -6.7118758      0             -5.8278258      5.0194525    
     50000   0.60151777    -6.6874336      0             -5.7870367      5.2416472    
    100000   0.59149303    -6.7788669      0             -5.8934757      4.729397     
    150000   0.5879768     -6.6279721      0             -5.7478444      5.8210543    
    200000   0.59117345    -6.7008477      0             -5.8159349      5.2709375    
    250000   0.61721327    -6.7338135      0             -5.8099224      4.9266366    
Loop time of 27.9063 on 4 procs for 250000 steps with 480 atoms

Performance: 2322054.020 tau/day, 8958.542 timesteps/s, 4.300 Matom-step/s
99.4% CPU use with 4 MPI tasks x 1 OpenMP threads

MPI task timing breakdown:
Section |  min time  |  avg time  |  max time  |%varavg| %total
---------------------------------------------------------------
Pair    | 17.98      | 18.373     | 18.763     |   8.3 | 65.84
Neigh   | 1.8377     | 1.8486     | 1.8585     |   0.6 |  6.62
Comm    | 6.0935     | 6.4693     | 6.8486     |  13.7 | 23.18
Output  | 0.25967    | 0.26409    | 0.27327    |   1.0 |  0.95
Modify  | 0.70221    | 0.71958    | 0.73434    |   1.5 |  2.58
Other   |            | 0.2313     |            |       |  0.83

Nlocal:            120 ave         125 max         112 min
Histogram: 1 0 0 0 0 1 0 0 0 2
Nghost:        1390.25 ave        1416 max        1364 min
Histogram: 2 0 0 0 0 0 0 0 0 2
Neighs:           6944 ave        7211 max        6444 min
Histogram: 1 0 0 0 0 0 1 0 0 2

Total # of neighbors = 27776
Ave neighs/atom = 57.866667
Neighbor list builds = 7699
Dangerous builds = 209
Total wall time: 0:00:27
