
    -----------------------------------------------------------------------
          Psi4: An Open-Source Ab Initio Electronic Structure Package
                               Psi4 1.7a1.dev44 

                         Git: Rev {master} 2792bff 


    D. G. A. Smith, L. A. Burns, A. C. Simmonett, R. M. Parrish,
    M. C. Schieber, R. Galvelis, P. Kraus, H. Kruse, R. Di Remigio,
    A. Alenaizan, A. M. James, S. Lehtola, J. P. Misiewicz, M. Scheurer,
    R. A. Shaw, J. B. Schriber, Y. Xie, Z. L. Glick, D. A. Sirianni,
    J. S. O'Brien, J. M. Waldrop, A. Kumar, E. G. Hohenstein,
    B. P. Pritchard, B. R. Brooks, H. F. Schaefer III, A. Yu. Sokolov,
    K. Patkowski, A. E. DePrince III, U. Bozkaya, R. A. King,
    F. A. Evangelista, J. M. Turney, T. D. Crawford, C. D. Sherrill,
    J. Chem. Phys. 152(18) 184108 (2020). https://doi.org/10.1063/5.0006002

                            Additional Code Authors
    E. T. Seidl, C. L. Janssen, E. F. Valeev, M. L. Leininger,
    J. F. Gonthier, R. M. Richard, H. R. McAlexander, M. Saitow, X. Wang,
    P. Verma, M. H. Lechner, and A. Jiang

             Previous Authors, Complete List of Code Contributors,
                       and Citations for Specific Modules
    https://github.com/psi4/psi4/blob/master/codemeta.json
    https://github.com/psi4/psi4/graphs/contributors
    http://psicode.org/psi4manual/master/introduction.html#citing-psifour

    -----------------------------------------------------------------------


    Psi4 started on: Thursday, 07 November 2024 03:05PM

    Process ID: 313079
    Host:       cm013.hpc.nyu.edu
    PSIDATADIR: /ext3/miniconda3/share/psi4
    Memory:     476.8 MiB
    Threads:    1
    
  ==> Input QCSchema <==

--------------------------------------------------------------------------
{'driver': 'energy',
 'extras': {'psiapi': True, 'wfn_qcvars_only': True},
 'id': None,
 'keywords': {'DF_INTS_IO': 'NONE',
              'FREEZE_CORE': '1',
              'REFERENCE': 'RHF',
              'SAPT__D_CONVERGENCE': 1e-09,
              'SAPT__E_CONVERGENCE': 1e-09,
              'SAPT__SAPT_LEVEL': 'SAPT0',
              'SCF_TYPE': 'DF',
              'SCF__INTS_TOLERANCE': 1e-12,
              'function_kwargs': {}},
 'model': {'basis': 'aug-cc-pvdz', 'method': 'ccsd(t)'},
 'molecule': {'atom_labels': ['', ''],
              'atomic_numbers': [18, 18],
              'fix_com': True,
              'fix_orientation': True,
              'fragment_charges': [0.0, 0.0],
              'fragment_multiplicities': [1, 1],
              'fragments': [[0], [1]],
              'geometry': [0.0, 0.0, -4.936094965635534, 0.0, 0.0, 4.936094965635534],
              'mass_numbers': [40, 40],
              'masses': [39.9623831237, 39.9623831237],
              'molecular_charge': 0.0,
              'molecular_multiplicity': 1,
              'name': 'Ar2',
              'provenance': {'creator': 'QCElemental',
                             'routine': 'qcelemental.molparse.from_string',
                             'version': 'v0.25.1'},
              'real': [True, False],
              'schema_name': 'qcschema_molecule',
              'schema_version': 2,
              'symbols': ['Ar', 'Ar'],
              'validated': True},
 'protocols': {'stdout': True},
 'provenance': {'creator': 'QCElemental', 'routine': 'qcelemental.models.results', 'version': 'v0.25.1'},
 'schema_name': 'qcschema_input',
 'schema_version': 1}
--------------------------------------------------------------------------

Scratch directory: /tmp/

*** tstart() called on cm013.hpc.nyu.edu
*** at Thu Nov  7 15:46:09 2024

   => Loading Basis Set <=

    Name: AUG-CC-PVDZ
    Role: ORBITAL
    Keyword: BASIS
    atoms 1-2 entry AR         line   834 file /ext3/miniconda3/share/psi4/basis/aug-cc-pvdz.gbs 


         ---------------------------------------------------------
                                   SCF
               by Justin Turney, Rob Parrish, Andy Simmonett
                          and Daniel G. A. Smith
                              RHF Reference
                        1 Threads,    476 MiB Core
         ---------------------------------------------------------

  ==> Geometry <==

    Molecular point group: c2v
    Full point group: C_inf_v

    Geometry (in Bohr), charge = 0, multiplicity = 1:

       Center              X                  Y                   Z               Mass       
    ------------   -----------------  -----------------  -----------------  -----------------
         AR           0.000000000000     0.000000000000    -4.936094965636    39.962383123700
      Gh(AR)          0.000000000000     0.000000000000     4.936094965636    39.962383123700

  Running in c2v symmetry.

  Rotational constants: A = ************  B =      0.03091  C =      0.03091 [cm^-1]
  Rotational constants: A = ************  B =    926.75843  C =    926.75843 [MHz]
  Nuclear repulsion =    0.000000000000000

  Charge       = 0
  Multiplicity = 1
  Electrons    = 18
  Nalpha       = 9
  Nbeta        = 9

  ==> Algorithm <==

  SCF Algorithm Type is DF.
  DIIS enabled.
  MOM disabled.
  Fractional occupation disabled.
  Guess Type is SAD.
  Energy threshold   = 1.00e-08
  Density threshold  = 1.00e-08
  Integral threshold = 1.00e-12

  ==> Primary Basis <==

  Basis Set: AUG-CC-PVDZ
    Blend: AUG-CC-PVDZ
    Number of shells: 22
    Number of basis functions: 54
    Number of Cartesian functions: 58
    Spherical Harmonics?: true
    Max angular momentum: 2

   => Loading Basis Set <=

    Name: (AUG-CC-PVDZ AUX)
    Role: JKFIT
    Keyword: DF_BASIS_SCF
    atoms 1-2 entry AR         line   854 file /ext3/miniconda3/share/psi4/basis/aug-cc-pvdz-jkfit.gbs 

  ==> Integral Setup <==

  ==> DiskDFJK: Density-Fitted J/K Matrices <==

    J tasked:                  Yes
    K tasked:                  Yes
    wK tasked:                  No
    OpenMP threads:              1
    Integrals threads:           1
    Memory [MiB]:              357
    Algorithm:                Core
    Integral Cache:           NONE
    Schwarz Cutoff:          1E-12
    Fitting Condition:       1E-10

   => Auxiliary Basis Set <=

  Basis Set: (AUG-CC-PVDZ AUX)
    Blend: AUG-CC-PVDZ-JKFIT
    Number of shells: 80
    Number of basis functions: 256
    Number of Cartesian functions: 300
    Spherical Harmonics?: true
    Max angular momentum: 3

  Minimum eigenvalue in the overlap matrix is 4.5014571554E-02.
  Reciprocal condition number of the overlap matrix is 1.9682322291E-02.
    Using symmetric orthogonalization.

  ==> Pre-Iterations <==

  SCF Guess: Superposition of Atomic Densities via on-the-fly atomic UHF (no occupation information).

   -------------------------
    Irrep   Nso     Nmo    
   -------------------------
     A1        26      26 
     A2         4       4 
     B1        12      12 
     B2        12      12 
   -------------------------
    Total      54      54
   -------------------------

  ==> Iterations <==

                           Total Energy        Delta E     RMS |[F,P]|

   @DF-RHF iter SAD:  -526.79237842417353   -5.26792e+02   0.00000e+00 
   @DF-RHF iter   1:  -526.80073394269505   -8.35552e-03   7.25871e-04 DIIS/ADIIS
   @DF-RHF iter   2:  -526.80096951079452   -2.35568e-04   1.92842e-04 DIIS/ADIIS
   @DF-RHF iter   3:  -526.80098430434259   -1.47935e-05   4.38179e-06 DIIS
   @DF-RHF iter   4:  -526.80098431688123   -1.25386e-08   6.42463e-07 DIIS
   @DF-RHF iter   5:  -526.80098431735109   -4.69868e-10   1.49653e-08 DIIS
   @DF-RHF iter   6:  -526.80098431735166   -5.68434e-13   3.02907e-09 DIIS
  Energy and wave function converged.


  ==> Post-Iterations <==

    Orbital Energies [Eh]
    ---------------------

    Doubly Occupied:                                                      

       1A1  -118.610548     2A1   -12.322763     3A1    -9.571332  
       1B1    -9.571329     1B2    -9.571329     4A1    -1.278884  
       5A1    -0.592255     2B1    -0.592250     2B2    -0.592250  

    Virtual:                                                              

       6A1     0.086578     7A1     0.116957     3B2     0.120769  
       3B1     0.120769     4B1     0.155603     4B2     0.155603  
       8A1     0.157388     9A1     0.206557    10A1     0.511597  
      11A1     0.538990     5B1     0.540657     5B2     0.540657  
      12A1     0.541420     1A2     0.541420     6B2     0.574462  
       6B1     0.574462    13A1     0.597183     2A2     0.796537  
      14A1     0.796537     7B2     0.796574     7B1     0.796574  
      15A1     0.798823     8B1     0.970923     8B2     0.970923  
      16A1     0.990389    17A1     1.336870    18A1     1.610305  
       3A2     1.610305     9B2     1.610560     9B1     1.610560  
      19A1     1.614117    20A1     1.898755    10B2     2.438380  
      10B1     2.438380    21A1     2.451137     4A2     3.103883  
      22A1     3.103883    11B2     3.104100    11B1     3.104100  
      23A1     3.107635    24A1     9.179039    12B1    27.716789  
      12B2    27.716789    25A1    27.732324    26A1   176.800570  

    Final Occupation by Irrep:
             A1    A2    B1    B2 
    DOCC [     5,    0,    2,    2 ]
    NA   [     5,    0,    2,    2 ]
    NB   [     5,    0,    2,    2 ]

  @DF-RHF Final Energy:  -526.80098431735166

   => Energetics <=

    Nuclear Repulsion Energy =              0.0000000000000000
    One-Electron Energy =                -728.1960924893101037
    Two-Electron Energy =                 201.3951081719584408
    Total Energy =                       -526.8009843173516629

Computation Completed


Properties will be evaluated at   0.000000,   0.000000,   0.000000 [a0]

Properties computed using the SCF density matrix


 Multipole Moments:

 ------------------------------------------------------------------------------------
     Multipole            Electronic (a.u.)      Nuclear  (a.u.)        Total (a.u.)
 ------------------------------------------------------------------------------------

 L = 1.  Multiply by 2.5417464519 to convert [e a0] to [Debye]
 Dipole X            :          0.0000000            0.0000000            0.0000000
 Dipole Y            :          0.0000000            0.0000000            0.0000000
 Dipole Z            :         88.8493091          -88.8497094           -0.0004003
 Magnitude           :                                                    0.0004003

 ------------------------------------------------------------------------------------

*** tstop() called on cm013.hpc.nyu.edu at Thu Nov  7 15:46:10 2024
Module time:
	user time   =       0.44 seconds =       0.01 minutes
	system time =       0.02 seconds =       0.00 minutes
	total time  =          1 seconds =       0.02 minutes
Total time:
	user time   =     940.13 seconds =      15.67 minutes
	system time =      93.70 seconds =       1.56 minutes
	total time  =       2324 seconds =      38.73 minutes
 MINTS: Wrapper to libmints.
   by Justin Turney

   Calculation information:
      Number of threads:                 1
      Number of atoms:                   2
      Number of AO shells:              22
      Number of SO shells:              22
      Number of primitives:            106
      Number of atomic orbitals:        58
      Number of basis functions:        54

      Number of irreps:                  4
      Integral cutoff                 1.00e-12
      Number of functions per irrep: [  26    4   12   12 ]

 OEINTS: Overlap, kinetic, potential, dipole, and quadrupole integrals
         stored in file 35.

      Computing two-electron integrals...done
      Computed 161958 non-zero two-electron integrals.
        Stored in file 33.


*** tstart() called on cm013.hpc.nyu.edu
*** at Thu Nov  7 15:46:11 2024


	Wfn Parameters:
	--------------------
	Wavefunction         = CCSD_T
	Number of irreps     = 4
	Number of MOs        = 54
	Number of active MOs = 49
	AO-Basis             = NONE
	Semicanonical        = false
	Reference            = RHF
	Print Level          = 1

	IRREP	# MOs	# FZDC	# DOCC	# SOCC	# VIRT	# FZVR
	-----	-----	------	------	------	------	------
	 A1	   26	    3	    2	    0	    21	    0
	 A2	   4	    0	    0	    0	    4	    0
	 B1	   12	    1	    1	    0	    10	    0
	 B2	   12	    1	    1	    0	    10	    0
	Transforming integrals...
	IWL integrals will be deleted.
	(OO|OO)...
	Presorting SO-basis two-electron integrals.
	Sorting File: SO Ints (nn|nn) nbuckets = 1
	Constructing frozen core operators
	Starting first half-transformation.
	Sorting half-transformed integrals.
	First half integral transformation complete.
	Starting second half-transformation.
	Two-electron integral transformation complete.
	(OO|OV)...
	Starting second half-transformation.
	Two-electron integral transformation complete.
	(OO|VV)...
	Starting second half-transformation.
	Two-electron integral transformation complete.
	(OV|OO)...
	Starting first half-transformation.
	Sorting half-transformed integrals.
	First half integral transformation complete.
	Starting second half-transformation.
	Two-electron integral transformation complete.
	(OV|OV)...
	Starting second half-transformation.
	Two-electron integral transformation complete.
	(OV|VV)...
	Starting second half-transformation.
	Two-electron integral transformation complete.
	(VV|OO)...
	Starting first half-transformation.
	Sorting half-transformed integrals.
	First half integral transformation complete.
	Starting second half-transformation.
	Two-electron integral transformation complete.
	(VV|OV)...
	Starting second half-transformation.
	Two-electron integral transformation complete.
	(VV|VV)...
	Starting second half-transformation.
	Two-electron integral transformation complete.
	Frozen core energy     =   -505.93058171842421

	Size of irrep 0 of <ab|cd> integrals:      0.432 (MW) /      3.453 (MB)
	Size of irrep 1 of <ab|cd> integrals:      0.135 (MW) /      1.083 (MB)
	Size of irrep 2 of <ab|cd> integrals:      0.250 (MW) /      2.000 (MB)
	Size of irrep 3 of <ab|cd> integrals:      0.250 (MW) /      2.000 (MB)
	Total:                                     1.067 (MW) /      8.537 (MB)

	Size of irrep 0 of <ia|bc> integrals:      0.041 (MW) /      0.326 (MB)
	Size of irrep 1 of <ia|bc> integrals:      0.010 (MW) /      0.082 (MB)
	Size of irrep 2 of <ia|bc> integrals:      0.022 (MW) /      0.180 (MB)
	Size of irrep 3 of <ia|bc> integrals:      0.022 (MW) /      0.180 (MB)
	Total:                                     0.096 (MW) /      0.768 (MB)

	Size of irrep 0 of tijab amplitudes:       0.004 (MW) /      0.032 (MB)
	Size of irrep 1 of tijab amplitudes:       0.001 (MW) /      0.006 (MB)
	Size of irrep 2 of tijab amplitudes:       0.002 (MW) /      0.016 (MB)
	Size of irrep 3 of tijab amplitudes:       0.002 (MW) /      0.016 (MB)
	Total:                                     0.009 (MW) /      0.069 (MB)

	Nuclear Rep. energy          =      0.00000000000000
	SCF energy                   =   -526.80098431735166
	One-electron energy          =    -35.62954543526402
	Two-electron energy          =     14.75914834939397
	Reference energy             =   -526.80097880429423

*** tstop() called on cm013.hpc.nyu.edu at Thu Nov  7 15:46:12 2024
Module time:
	user time   =       0.09 seconds =       0.00 minutes
	system time =       0.06 seconds =       0.00 minutes
	total time  =          1 seconds =       0.02 minutes
Total time:
	user time   =     941.73 seconds =      15.70 minutes
	system time =      93.77 seconds =       1.56 minutes
	total time  =       2326 seconds =      38.77 minutes
            **************************
            *                        *
            *        CCENERGY        *
            *                        *
            **************************

    Nuclear Rep. energy (wfn)     =    0.000000000000000
    SCF energy          (wfn)     = -526.800984317351663
    Reference energy    (file100) = -526.800978804294232

    Input parameters:
    -----------------
    Wave function   =     CCSD_T
    Reference wfn   =     RHF
    Brueckner       =     No
    Memory (Mbytes) =     500.0
    Maxiter         =     50
    R_Convergence   =     1.0e-07
    E_Convergence   =     1.0e-06
    Restart         =     Yes
    DIIS            =     Yes
    AO Basis        =     NONE
    ABCD            =     NEW
    Cache Level     =     2
    Cache Type      =     LOW
    Print Level     =     1
    Num. of threads =     1
    # Amps to Print =     10
    Print MP2 Amps? =     No
    Analyze T2 Amps =     No
    Print Pair Ener =     No
    Local CC        =     No
    SCS-MP2         =     False
    SCSN-MP2        =     False
    SCS-CCSD        =     False

MP2 correlation energy -0.1543441471266788
                Solving CC Amplitude Equations
                ------------------------------
  Iter             Energy              RMS        T1Diag      D1Diag    New D1Diag    D2Diag
  ----     ---------------------    ---------   ----------  ----------  ----------   --------
     0        -0.154344147126679    0.000e+00    0.000000    0.000000    0.000000    0.104846
     1        -0.164343481791203    2.263e-02    0.002852    0.004524    0.004524    0.113959
     2        -0.166097056694417    5.767e-03    0.003406    0.005312    0.005312    0.116564
     3        -0.166206416233850    1.084e-03    0.003669    0.005735    0.005735    0.116888
     4        -0.166208056139172    2.219e-04    0.003709    0.005789    0.005789    0.116939
     5        -0.166205167781971    4.412e-05    0.003716    0.005800    0.005800    0.116935
     6        -0.166205186239190    8.013e-06    0.003717    0.005801    0.005801    0.116934
     7        -0.166205261732549    2.471e-06    0.003717    0.005801    0.005801    0.116934
     8        -0.166205271772832    6.394e-07    0.003717    0.005801    0.005801    0.116934
     9        -0.166205270172080    1.576e-07    0.003717    0.005801    0.005801    0.116934
    10        -0.166205270537281    5.332e-08    0.003717    0.005801    0.005801    0.116934

    Iterations converged.


    Largest TIA Amplitudes:
              2  26         0.0049512435
              3  36         0.0049512435
              1   2        -0.0037306868
              1   3         0.0029266241
              0  11         0.0025179712
              2  30        -0.0022502649
              3  40        -0.0022502649
              1  10         0.0021085555
              2  25         0.0019834975
              3  35         0.0019834975

    Largest TIjAb Amplitudes:
      2   2   6   6        -0.0281310677
      2   2  21  21        -0.0281310677
      3   3   6   6        -0.0281310677
      3   3  21  21        -0.0281310677
      1   1   5   5        -0.0277033345
      1   1  27  27        -0.0272713013
      1   1  37  37        -0.0272713013
      2   2  27  27        -0.0272698683
      3   3  37  37        -0.0272698683
      2   2  30  30        -0.0271976703

    SCF energy       (wfn)                    = -526.800984317351663
    Reference energy (file100)                = -526.800978804294232

    Opposite-spin MP2 correlation energy      =   -0.112008042472716
    Same-spin MP2 correlation energy          =   -0.042336104653963
    Singles MP2 correlation energy            =   -0.000000000000000
    MP2 correlation energy                    =   -0.154344147126679
      * MP2 total energy                      = -526.955322951420953

    Opposite-spin CCSD correlation energy     =   -0.125283859126112
    Same-spin CCSD correlation energy         =   -0.040921411411170
    Singles CCSD correlation energy           =    0.000000000000000
    CCSD correlation energy                   =   -0.166205270537281
      * CCSD total energy                     = -526.967184074831493

            **************************
            *                        *
            *        CCTRIPLES       *
            *                        *
            **************************


    Wave function   =    CCSD_T
    Reference wfn   =      RHF

    Nuclear Rep. energy (wfn)                =    0.000000000000000
    SCF energy          (wfn)                = -526.800984317351663
    Reference energy    (file100)            = -526.800978804294232
    CCSD energy         (file100)            =   -0.166205270537281
    Total CCSD energy   (file100)            = -526.967184074831493

    Number of ijk index combinations:               20
    Memory available in words               :        62500000
    Approx. words needed per explicit thread:           37044
    Number of threads for explicit ijk threading:    1

    MKL num_threads set to 1 for explicit threading.

    (T) energy                                =   -0.002526957777244
      * CCSD(T) total energy                  = -526.969711032608757


    Psi4 stopped on: Thursday, 07 November 2024 03:46PM
    Psi4 wall time for execution: 0:00:02.51


    -----------------------------------------------------------------------
          Psi4: An Open-Source Ab Initio Electronic Structure Package
                               Psi4 1.7a1.dev44 

                         Git: Rev {master} 2792bff 


    D. G. A. Smith, L. A. Burns, A. C. Simmonett, R. M. Parrish,
    M. C. Schieber, R. Galvelis, P. Kraus, H. Kruse, R. Di Remigio,
    A. Alenaizan, A. M. James, S. Lehtola, J. P. Misiewicz, M. Scheurer,
    R. A. Shaw, J. B. Schriber, Y. Xie, Z. L. Glick, D. A. Sirianni,
    J. S. O'Brien, J. M. Waldrop, A. Kumar, E. G. Hohenstein,
    B. P. Pritchard, B. R. Brooks, H. F. Schaefer III, A. Yu. Sokolov,
    K. Patkowski, A. E. DePrince III, U. Bozkaya, R. A. King,
    F. A. Evangelista, J. M. Turney, T. D. Crawford, C. D. Sherrill,
    J. Chem. Phys. 152(18) 184108 (2020). https://doi.org/10.1063/5.0006002

                            Additional Code Authors
    E. T. Seidl, C. L. Janssen, E. F. Valeev, M. L. Leininger,
    J. F. Gonthier, R. M. Richard, H. R. McAlexander, M. Saitow, X. Wang,
    P. Verma, M. H. Lechner, and A. Jiang

             Previous Authors, Complete List of Code Contributors,
                       and Citations for Specific Modules
    https://github.com/psi4/psi4/blob/master/codemeta.json
    https://github.com/psi4/psi4/graphs/contributors
    http://psicode.org/psi4manual/master/introduction.html#citing-psifour

    -----------------------------------------------------------------------


    Psi4 started on: Thursday, 07 November 2024 03:05PM

    Process ID: 313079
    Host:       cm013.hpc.nyu.edu
    PSIDATADIR: /ext3/miniconda3/share/psi4
    Memory:     476.8 MiB
    Threads:    1
    
  ==> Input QCSchema <==

--------------------------------------------------------------------------
{'driver': 'energy',
 'extras': {'psiapi': True, 'wfn_qcvars_only': True},
 'id': None,
 'keywords': {'DF_INTS_IO': 'NONE',
              'FREEZE_CORE': '1',
              'REFERENCE': 'RHF',
              'SAPT__D_CONVERGENCE': 1e-09,
              'SAPT__E_CONVERGENCE': 1e-09,
              'SAPT__SAPT_LEVEL': 'SAPT0',
              'SCF_TYPE': 'DF',
              'SCF__INTS_TOLERANCE': 1e-12,
              'function_kwargs': {}},
 'model': {'basis': 'aug-cc-pvdz', 'method': 'ccsd(t)'},
 'molecule': {'atom_labels': ['', ''],
              'atomic_numbers': [18, 18],
              'fix_com': True,
              'fix_orientation': True,
              'fragment_charges': [0.0, 0.0],
              'fragment_multiplicities': [1, 1],
              'fragments': [[0], [1]],
              'geometry': [0.0, 0.0, -4.936094965635534, 0.0, 0.0, 4.936094965635534],
              'mass_numbers': [40, 40],
              'masses': [39.9623831237, 39.9623831237],
              'molecular_charge': 0.0,
              'molecular_multiplicity': 1,
              'name': 'Ar2',
              'provenance': {'creator': 'QCElemental',
                             'routine': 'qcelemental.molparse.from_string',
                             'version': 'v0.25.1'},
              'real': [True, True],
              'schema_name': 'qcschema_molecule',
              'schema_version': 2,
              'symbols': ['Ar', 'Ar'],
              'validated': True},
 'protocols': {'stdout': True},
 'provenance': {'creator': 'QCElemental', 'routine': 'qcelemental.models.results', 'version': 'v0.25.1'},
 'schema_name': 'qcschema_input',
 'schema_version': 1}
--------------------------------------------------------------------------

Scratch directory: /tmp/

*** tstart() called on cm013.hpc.nyu.edu
*** at Thu Nov  7 15:46:12 2024

   => Loading Basis Set <=

    Name: AUG-CC-PVDZ
    Role: ORBITAL
    Keyword: BASIS
    atoms 1-2 entry AR         line   834 file /ext3/miniconda3/share/psi4/basis/aug-cc-pvdz.gbs 


         ---------------------------------------------------------
                                   SCF
               by Justin Turney, Rob Parrish, Andy Simmonett
                          and Daniel G. A. Smith
                              RHF Reference
                        1 Threads,    476 MiB Core
         ---------------------------------------------------------

  ==> Geometry <==

    Molecular point group: d2h
    Full point group: D_inf_h

    Geometry (in Bohr), charge = 0, multiplicity = 1:

       Center              X                  Y                   Z               Mass       
    ------------   -----------------  -----------------  -----------------  -----------------
         AR           0.000000000000     0.000000000000    -4.936094965636    39.962383123700
         AR           0.000000000000     0.000000000000     4.936094965636    39.962383123700

  Running in d2h symmetry.

  Rotational constants: A = ************  B =      0.03091  C =      0.03091 [cm^-1]
  Rotational constants: A = ************  B =    926.75843  C =    926.75843 [MHz]
  Nuclear repulsion =   32.819465818186934

  Charge       = 0
  Multiplicity = 1
  Electrons    = 36
  Nalpha       = 18
  Nbeta        = 18

  ==> Algorithm <==

  SCF Algorithm Type is DF.
  DIIS enabled.
  MOM disabled.
  Fractional occupation disabled.
  Guess Type is SAD.
  Energy threshold   = 1.00e-08
  Density threshold  = 1.00e-08
  Integral threshold = 1.00e-12

  ==> Primary Basis <==

  Basis Set: AUG-CC-PVDZ
    Blend: AUG-CC-PVDZ
    Number of shells: 22
    Number of basis functions: 54
    Number of Cartesian functions: 58
    Spherical Harmonics?: true
    Max angular momentum: 2

   => Loading Basis Set <=

    Name: (AUG-CC-PVDZ AUX)
    Role: JKFIT
    Keyword: DF_BASIS_SCF
    atoms 1-2 entry AR         line   854 file /ext3/miniconda3/share/psi4/basis/aug-cc-pvdz-jkfit.gbs 

  ==> Integral Setup <==

  ==> DiskDFJK: Density-Fitted J/K Matrices <==

    J tasked:                  Yes
    K tasked:                  Yes
    wK tasked:                  No
    OpenMP threads:              1
    Integrals threads:           1
    Memory [MiB]:              357
    Algorithm:                Core
    Integral Cache:           NONE
    Schwarz Cutoff:          1E-12
    Fitting Condition:       1E-10

   => Auxiliary Basis Set <=

  Basis Set: (AUG-CC-PVDZ AUX)
    Blend: AUG-CC-PVDZ-JKFIT
    Number of shells: 80
    Number of basis functions: 256
    Number of Cartesian functions: 300
    Spherical Harmonics?: true
    Max angular momentum: 3

  Minimum eigenvalue in the overlap matrix is 4.5324476230E-02.
  Reciprocal condition number of the overlap matrix is 2.0036506776E-02.
    Using symmetric orthogonalization.

  ==> Pre-Iterations <==

  SCF Guess: Superposition of Atomic Densities via on-the-fly atomic UHF (no occupation information).

   -------------------------
    Irrep   Nso     Nmo    
   -------------------------
     Ag        13      13 
     B1g        2       2 
     B2g        6       6 
     B3g        6       6 
     Au         2       2 
     B1u       13      13 
     B2u        6       6 
     B3u        6       6 
   -------------------------
    Total      54      54
   -------------------------

  ==> Iterations <==

                           Total Energy        Delta E     RMS |[F,P]|

   @DF-RHF iter SAD: -1053.58476255000232   -1.05358e+03   0.00000e+00 
   @DF-RHF iter   1: -1053.60146699771531   -1.67044e-02   1.45179e-03 DIIS/ADIIS
   @DF-RHF iter   2: -1053.60193810870442   -4.71111e-04   3.85652e-04 DIIS/ADIIS
   @DF-RHF iter   3: -1053.60196768979631   -2.95811e-05   8.95590e-06 DIIS
   @DF-RHF iter   4: -1053.60196771513961   -2.53433e-08   1.27942e-06 DIIS
   @DF-RHF iter   5: -1053.60196771606707   -9.27457e-10   2.96726e-08 DIIS
   @DF-RHF iter   6: -1053.60196771606729   -2.27374e-13   5.86586e-09 DIIS
  Energy and wave function converged.


  ==> Post-Iterations <==

    Orbital Energies [Eh]
    ---------------------

    Doubly Occupied:                                                      

       1B1u -118.610537     1Ag  -118.610537     2B1u  -12.322755  
       2Ag   -12.322750     3B1u   -9.571322     3Ag    -9.571322  
       1B2g   -9.571319     1B3g   -9.571319     1B3u   -9.571319  
       1B2u   -9.571319     4Ag    -1.278890     4B1u   -1.278862  
       5Ag    -0.592715     2B3u   -0.592287     2B2u   -0.592287  
       2B2g   -0.592198     2B3g   -0.592198     5B1u   -0.591782  

    Virtual:                                                              

       6Ag     0.125078     3B3u    0.138360     3B2u    0.138360  
       6B1u    0.148256     3B3g    0.163912     3B2g    0.163912  
       7Ag     0.165248     7B1u    0.232782     8Ag     0.540893  
       4B2u    0.541251     4B3u    0.541251     1B1g    0.541409  
       9Ag     0.541409     1Au     0.541445     8B1u    0.541445  
       4B3g    0.542024     4B2g    0.542024     9B1u    0.548927  
       5B3u    0.962171     5B2u    0.962171     5B2g    0.978900  
       5B3g    0.978900    10B1u    0.983426    10Ag     0.987642  
      11Ag     1.309581    11B1u    1.365207     6B2u    1.610157  
       6B3u    1.610157    12Ag     1.610239     2B1g    1.610290  
      13Ag     1.610290     2Au     1.610332    12B1u    1.610332  
       6B3g    1.611135     6B2g    1.611135    13B1u    1.623563  

    Final Occupation by Irrep:
             Ag   B1g   B2g   B3g    Au   B1u   B2u   B3u 
    DOCC [     5,    0,    2,    2,    0,    5,    2,    2 ]
    NA   [     5,    0,    2,    2,    0,    5,    2,    2 ]
    NB   [     5,    0,    2,    2,    0,    5,    2,    2 ]

  @DF-RHF Final Energy: -1053.60196771606729

   => Energetics <=

    Nuclear Repulsion Energy =             32.8194658181869343
    One-Electron Energy =               -1522.0314331019469591
    Two-Electron Energy =                 435.6099995676926255
    Total Energy =                      -1053.6019677160675201

Computation Completed


Properties will be evaluated at   0.000000,   0.000000,   0.000000 [a0]

Properties computed using the SCF density matrix


 Multipole Moments:

 ------------------------------------------------------------------------------------
     Multipole            Electronic (a.u.)      Nuclear  (a.u.)        Total (a.u.)
 ------------------------------------------------------------------------------------

 L = 1.  Multiply by 2.5417464519 to convert [e a0] to [Debye]
 Dipole X            :          0.0000000            0.0000000            0.0000000
 Dipole Y            :          0.0000000            0.0000000            0.0000000
 Dipole Z            :          0.0000000            0.0000000            0.0000000
 Magnitude           :                                                    0.0000000

 ------------------------------------------------------------------------------------

*** tstop() called on cm013.hpc.nyu.edu at Thu Nov  7 15:46:12 2024
Module time:
	user time   =       0.48 seconds =       0.01 minutes
	system time =       0.02 seconds =       0.00 minutes
	total time  =          0 seconds =       0.00 minutes
Total time:
	user time   =     942.39 seconds =      15.71 minutes
	system time =      93.92 seconds =       1.57 minutes
	total time  =       2326 seconds =      38.77 minutes
 MINTS: Wrapper to libmints.
   by Justin Turney

   Calculation information:
      Number of threads:                 1
      Number of atoms:                   2
      Number of AO shells:              22
      Number of SO shells:              11
      Number of primitives:            106
      Number of atomic orbitals:        58
      Number of basis functions:        54

      Number of irreps:                  8
      Integral cutoff                 1.00e-12
      Number of functions per irrep: [  13    2    6    6    2   13    6    6 ]

 OEINTS: Overlap, kinetic, potential, dipole, and quadrupole integrals
         stored in file 35.

      Computing two-electron integrals...done
      Computed 134055 non-zero two-electron integrals.
        Stored in file 33.


*** tstart() called on cm013.hpc.nyu.edu
*** at Thu Nov  7 15:46:13 2024


	Wfn Parameters:
	--------------------
	Wavefunction         = CCSD_T
	Number of irreps     = 8
	Number of MOs        = 54
	Number of active MOs = 44
	AO-Basis             = NONE
	Semicanonical        = false
	Reference            = RHF
	Print Level          = 1

	IRREP	# MOs	# FZDC	# DOCC	# SOCC	# VIRT	# FZVR
	-----	-----	------	------	------	------	------
	 Ag	   13	    3	    2	    0	    8	    0
	 B1g	   2	    0	    0	    0	    2	    0
	 B2g	   6	    1	    1	    0	    4	    0
	 B3g	   6	    1	    1	    0	    4	    0
	 Au	   2	    0	    0	    0	    2	    0
	 B1u	   13	    3	    2	    0	    8	    0
	 B2u	   6	    1	    1	    0	    4	    0
	 B3u	   6	    1	    1	    0	    4	    0
	Transforming integrals...
	IWL integrals will be deleted.
	(OO|OO)...
	Presorting SO-basis two-electron integrals.
	Sorting File: SO Ints (nn|nn) nbuckets = 1
	Constructing frozen core operators
	Starting first half-transformation.
	Sorting half-transformed integrals.
	First half integral transformation complete.
	Starting second half-transformation.
	Two-electron integral transformation complete.
	(OO|OV)...
	Starting second half-transformation.
	Two-electron integral transformation complete.
	(OO|VV)...
	Starting second half-transformation.
	Two-electron integral transformation complete.
	(OV|OO)...
	Starting first half-transformation.
	Sorting half-transformed integrals.
	First half integral transformation complete.
	Starting second half-transformation.
	Two-electron integral transformation complete.
	(OV|OV)...
	Starting second half-transformation.
	Two-electron integral transformation complete.
	(OV|VV)...
	Starting second half-transformation.
	Two-electron integral transformation complete.
	(VV|OO)...
	Starting first half-transformation.
	Sorting half-transformed integrals.
	First half integral transformation complete.
	Starting second half-transformation.
	Two-electron integral transformation complete.
	(VV|OV)...
	Starting second half-transformation.
	Two-electron integral transformation complete.
	(VV|VV)...
	Starting second half-transformation.
	Two-electron integral transformation complete.
	Frozen core energy     =  -1038.19777247115348

	Size of irrep 0 of <ab|cd> integrals:      0.040 (MW) /      0.320 (MB)
	Size of irrep 1 of <ab|cd> integrals:      0.016 (MW) /      0.131 (MB)
	Size of irrep 2 of <ab|cd> integrals:      0.026 (MW) /      0.205 (MB)
	Size of irrep 3 of <ab|cd> integrals:      0.026 (MW) /      0.205 (MB)
	Size of irrep 4 of <ab|cd> integrals:      0.016 (MW) /      0.131 (MB)
	Size of irrep 5 of <ab|cd> integrals:      0.040 (MW) /      0.320 (MB)
	Size of irrep 6 of <ab|cd> integrals:      0.026 (MW) /      0.205 (MB)
	Size of irrep 7 of <ab|cd> integrals:      0.026 (MW) /      0.205 (MB)
	Total:                                     0.215 (MW) /      1.721 (MB)

	Size of irrep 0 of <ia|bc> integrals:      0.010 (MW) /      0.077 (MB)
	Size of irrep 1 of <ia|bc> integrals:      0.003 (MW) /      0.025 (MB)
	Size of irrep 2 of <ia|bc> integrals:      0.006 (MW) /      0.046 (MB)
	Size of irrep 3 of <ia|bc> integrals:      0.006 (MW) /      0.046 (MB)
	Size of irrep 4 of <ia|bc> integrals:      0.003 (MW) /      0.025 (MB)
	Size of irrep 5 of <ia|bc> integrals:      0.010 (MW) /      0.077 (MB)
	Size of irrep 6 of <ia|bc> integrals:      0.006 (MW) /      0.046 (MB)
	Size of irrep 7 of <ia|bc> integrals:      0.006 (MW) /      0.046 (MB)
	Total:                                     0.048 (MW) /      0.387 (MB)

	Size of irrep 0 of tijab amplitudes:       0.002 (MW) /      0.019 (MB)
	Size of irrep 1 of tijab amplitudes:       0.001 (MW) /      0.004 (MB)
	Size of irrep 2 of tijab amplitudes:       0.001 (MW) /      0.010 (MB)
	Size of irrep 3 of tijab amplitudes:       0.001 (MW) /      0.010 (MB)
	Size of irrep 4 of tijab amplitudes:       0.001 (MW) /      0.004 (MB)
	Size of irrep 5 of tijab amplitudes:       0.002 (MW) /      0.019 (MB)
	Size of irrep 6 of tijab amplitudes:       0.001 (MW) /      0.010 (MB)
	Size of irrep 7 of tijab amplitudes:       0.001 (MW) /      0.010 (MB)
	Total:                                     0.011 (MW) /      0.088 (MB)

	Nuclear Rep. energy          =     32.81946581818693
	SCF energy                   =  -1053.60196771606729
	One-electron energy          =    -84.22491874669426
	Two-electron energy          =     36.00126967125397
	Reference energy             =  -1053.60195572840689

*** tstop() called on cm013.hpc.nyu.edu at Thu Nov  7 15:46:13 2024
Module time:
	user time   =       0.07 seconds =       0.00 minutes
	system time =       0.03 seconds =       0.00 minutes
	total time  =          0 seconds =       0.00 minutes
Total time:
	user time   =     943.36 seconds =      15.72 minutes
	system time =      93.96 seconds =       1.57 minutes
	total time  =       2327 seconds =      38.78 minutes
            **************************
            *                        *
            *        CCENERGY        *
            *                        *
            **************************

    Nuclear Rep. energy (wfn)     =   32.819465818186934
    SCF energy          (wfn)     = -1053.601967716067293
    Reference energy    (file100) = -1053.601955728406892

    Input parameters:
    -----------------
    Wave function   =     CCSD_T
    Reference wfn   =     RHF
    Brueckner       =     No
    Memory (Mbytes) =     500.0
    Maxiter         =     50
    R_Convergence   =     1.0e-07
    E_Convergence   =     1.0e-06
    Restart         =     Yes
    DIIS            =     Yes
    AO Basis        =     NONE
    ABCD            =     NEW
    Cache Level     =     2
    Cache Type      =     LOW
    Print Level     =     1
    Num. of threads =     1
    # Amps to Print =     10
    Print MP2 Amps? =     No
    Analyze T2 Amps =     No
    Print Pair Ener =     No
    Local CC        =     No
    SCS-MP2         =     False
    SCSN-MP2        =     False
    SCS-CCSD        =     False

MP2 correlation energy -0.3087706762183796
                Solving CC Amplitude Equations
                ------------------------------
  Iter             Energy              RMS        T1Diag      D1Diag    New D1Diag    D2Diag
  ----     ---------------------    ---------   ----------  ----------  ----------   --------
     0        -0.308770676218380    0.000e+00    0.000000    0.000000    0.000000    0.104951
     1        -0.328749353784930    3.201e-02    0.002863    0.004874    0.004874    0.114056
     2        -0.332258084722390    8.160e-03    0.003418    0.005725    0.005725    0.116671
     3        -0.332477380126812    1.537e-03    0.003683    0.006207    0.006207    0.116996
     4        -0.332480612124017    3.147e-04    0.003723    0.006275    0.006275    0.117048
     5        -0.332474823200184    6.251e-05    0.003731    0.006291    0.006291    0.117044
     6        -0.332474861684883    1.117e-05    0.003732    0.006292    0.006292    0.117043
     7        -0.332475014657015    3.226e-06    0.003732    0.006292    0.006292    0.117043
     8        -0.332475030022325    7.791e-07    0.003732    0.006292    0.006292    0.117043
     9        -0.332475026490002    1.961e-07    0.003732    0.006292    0.006292    0.117043
    10        -0.332475027591605    6.123e-08    0.003732    0.006292    0.006292    0.117043

    Iterations converged.


    Largest TIA Amplitudes:
              6  28         0.0054056231
              7  32         0.0054056231
              2  10         0.0052894955
              3  14         0.0052894955
              1   0        -0.0047358845
              1   1         0.0035113294
              5  21         0.0034611971
              5  20        -0.0034597629
              4  25         0.0025143823
              0   5         0.0025139703

    Largest TIjAb Amplitudes:
      5   5  23  23        -0.0188177536
      1   1   2   2        -0.0184915109
      1   5   2  23        -0.0184558337
      5   1  23   2        -0.0184558337
      1   1  23  23        -0.0178976156
      5   5   2   2        -0.0176987936
      1   5  23   2        -0.0175974722
      5   1   2  23        -0.0175974722
      6   6  29  29        -0.0142941575
      7   7  33  33        -0.0142941575

    SCF energy       (wfn)                    = -1053.601967716067293
    Reference energy (file100)                = -1053.601955728406892

    Opposite-spin MP2 correlation energy      =   -0.224057275649466
    Same-spin MP2 correlation energy          =   -0.084713400568914
    Singles MP2 correlation energy            =   -0.000000000000000
    MP2 correlation energy                    =   -0.308770676218380
      * MP2 total energy                      = -1053.910726404625166

    Opposite-spin CCSD correlation energy     =   -0.250597519392682
    Same-spin CCSD correlation energy         =   -0.081877508198923
    Singles CCSD correlation energy           =    0.000000000000000
    CCSD correlation energy                   =   -0.332475027591605
      * CCSD total energy                     = -1053.934430755998392

            **************************
            *                        *
            *        CCTRIPLES       *
            *                        *
            **************************


    Wave function   =    CCSD_T
    Reference wfn   =      RHF

    Nuclear Rep. energy (wfn)                =   32.819465818186934
    SCF energy          (wfn)                = -1053.601967716067293
    Reference energy    (file100)            = -1053.601955728406892
    CCSD energy         (file100)            =   -0.332475027591605
    Total CCSD energy   (file100)            = -1053.934430755998392

    Number of ijk index combinations:              120
    Memory available in words               :        62500000
    Approx. words needed per explicit thread:            2048
    Number of threads for explicit ijk threading:    1

    MKL num_threads set to 1 for explicit threading.

    (T) energy                                =   -0.005060729836907
      * CCSD(T) total energy                  = -1053.939491485835333


    Psi4 stopped on: Thursday, 07 November 2024 03:46PM
    Psi4 wall time for execution: 0:00:01.91


  //>>>>>>>>>>>>>>>>>>>>>>>>>>>>>>>>>>>//
  //          ManyBody Results         //
  //<<<<<<<<<<<<<<<<<<<<<<<<<<<<<<<<<<<//


   ==> N-Body: Counterpoise Corrected (CP) energies <==

        n-Body     Total Energy            Interaction Energy                          N-body Contribution to Interaction Energy
                   [Eh]                    [Eh]                  [kcal/mol]            [Eh]                  [kcal/mol]
             1  N/A                         0.000000000000        0.000000000000        0.000000000000        0.000000000000
  FULL/RTN   2  N/A                        -0.000069420619       -0.043562095785       -0.000069420619       -0.043562095785


Scratch directory: /tmp/

  //>>>>>>>>>>>>>>>>>>>>>>>>>>>>>>>>>>>>>//
  // ManyBody Setup: N-Body Levels [1, 2]//
  //<<<<<<<<<<<<<<<<<<<<<<<<<<<<<<<<<<<<<//

        Number of 1-body computations:     2
        Number of 2-body computations:     1

    -----------------------------------------------------------------------
          Psi4: An Open-Source Ab Initio Electronic Structure Package
                               Psi4 1.7a1.dev44 

                         Git: Rev {master} 2792bff 


    D. G. A. Smith, L. A. Burns, A. C. Simmonett, R. M. Parrish,
    M. C. Schieber, R. Galvelis, P. Kraus, H. Kruse, R. Di Remigio,
    A. Alenaizan, A. M. James, S. Lehtola, J. P. Misiewicz, M. Scheurer,
    R. A. Shaw, J. B. Schriber, Y. Xie, Z. L. Glick, D. A. Sirianni,
    J. S. O'Brien, J. M. Waldrop, A. Kumar, E. G. Hohenstein,
    B. P. Pritchard, B. R. Brooks, H. F. Schaefer III, A. Yu. Sokolov,
    K. Patkowski, A. E. DePrince III, U. Bozkaya, R. A. King,
    F. A. Evangelista, J. M. Turney, T. D. Crawford, C. D. Sherrill,
    J. Chem. Phys. 152(18) 184108 (2020). https://doi.org/10.1063/5.0006002

                            Additional Code Authors
    E. T. Seidl, C. L. Janssen, E. F. Valeev, M. L. Leininger,
    J. F. Gonthier, R. M. Richard, H. R. McAlexander, M. Saitow, X. Wang,
    P. Verma, M. H. Lechner, and A. Jiang

             Previous Authors, Complete List of Code Contributors,
                       and Citations for Specific Modules
    https://github.com/psi4/psi4/blob/master/codemeta.json
    https://github.com/psi4/psi4/graphs/contributors
    http://psicode.org/psi4manual/master/introduction.html#citing-psifour

    -----------------------------------------------------------------------


    Psi4 started on: Thursday, 07 November 2024 03:05PM

    Process ID: 313079
    Host:       cm013.hpc.nyu.edu
    PSIDATADIR: /ext3/miniconda3/share/psi4
    Memory:     476.8 MiB
    Threads:    1
    
  ==> Input QCSchema <==

--------------------------------------------------------------------------
{'driver': 'energy',
 'extras': {'psiapi': True, 'wfn_qcvars_only': True},
 'id': None,
 'keywords': {'DF_INTS_IO': 'NONE',
              'FREEZE_CORE': '1',
              'REFERENCE': 'RHF',
              'SAPT__D_CONVERGENCE': 1e-09,
              'SAPT__E_CONVERGENCE': 1e-09,
              'SAPT__SAPT_LEVEL': 'SAPT0',
              'SCF_TYPE': 'DF',
              'SCF__INTS_TOLERANCE': 1e-12,
              'function_kwargs': {}},
 'model': {'basis': 'aug-cc-pvdz', 'method': 'ccsd(t)'},
 'molecule': {'atom_labels': ['', ''],
              'atomic_numbers': [18, 18],
              'fix_com': True,
              'fix_orientation': True,
              'fragment_charges': [0.0, 0.0],
              'fragment_multiplicities': [1, 1],
              'fragments': [[0], [1]],
              'geometry': [0.0, 0.0, -5.01754867793975, 0.0, 0.0, 5.01754867793975],
              'mass_numbers': [40, 40],
              'masses': [39.9623831237, 39.9623831237],
              'molecular_charge': 0.0,
              'molecular_multiplicity': 1,
              'name': 'Ar2',
              'provenance': {'creator': 'QCElemental',
                             'routine': 'qcelemental.molparse.from_string',
                             'version': 'v0.25.1'},
              'real': [False, True],
              'schema_name': 'qcschema_molecule',
              'schema_version': 2,
              'symbols': ['Ar', 'Ar'],
              'validated': True},
 'protocols': {'stdout': True},
 'provenance': {'creator': 'QCElemental', 'routine': 'qcelemental.models.results', 'version': 'v0.25.1'},
 'schema_name': 'qcschema_input',
 'schema_version': 1}
--------------------------------------------------------------------------

Scratch directory: /tmp/

*** tstart() called on cm013.hpc.nyu.edu
*** at Thu Nov  7 15:46:14 2024

   => Loading Basis Set <=

    Name: AUG-CC-PVDZ
    Role: ORBITAL
    Keyword: BASIS
    atoms 1-2 entry AR         line   834 file /ext3/miniconda3/share/psi4/basis/aug-cc-pvdz.gbs 


         ---------------------------------------------------------
                                   SCF
               by Justin Turney, Rob Parrish, Andy Simmonett
                          and Daniel G. A. Smith
                              RHF Reference
                        1 Threads,    476 MiB Core
         ---------------------------------------------------------

  ==> Geometry <==

    Molecular point group: c2v
    Full point group: C_inf_v

    Geometry (in Bohr), charge = 0, multiplicity = 1:

       Center              X                  Y                   Z               Mass       
    ------------   -----------------  -----------------  -----------------  -----------------
      Gh(AR)          0.000000000000     0.000000000000    -5.017548677940    39.962383123700
         AR           0.000000000000     0.000000000000     5.017548677940    39.962383123700

  Running in c2v symmetry.

  Rotational constants: A = ************  B =      0.02992  C =      0.02992 [cm^-1]
  Rotational constants: A = ************  B =    896.91311  C =    896.91311 [MHz]
  Nuclear repulsion =    0.000000000000000

  Charge       = 0
  Multiplicity = 1
  Electrons    = 18
  Nalpha       = 9
  Nbeta        = 9

  ==> Algorithm <==

  SCF Algorithm Type is DF.
  DIIS enabled.
  MOM disabled.
  Fractional occupation disabled.
  Guess Type is SAD.
  Energy threshold   = 1.00e-08
  Density threshold  = 1.00e-08
  Integral threshold = 1.00e-12

  ==> Primary Basis <==

  Basis Set: AUG-CC-PVDZ
    Blend: AUG-CC-PVDZ
    Number of shells: 22
    Number of basis functions: 54
    Number of Cartesian functions: 58
    Spherical Harmonics?: true
    Max angular momentum: 2

   => Loading Basis Set <=

    Name: (AUG-CC-PVDZ AUX)
    Role: JKFIT
    Keyword: DF_BASIS_SCF
    atoms 1-2 entry AR         line   854 file /ext3/miniconda3/share/psi4/basis/aug-cc-pvdz-jkfit.gbs 

  ==> Integral Setup <==

  ==> DiskDFJK: Density-Fitted J/K Matrices <==

    J tasked:                  Yes
    K tasked:                  Yes
    wK tasked:                  No
    OpenMP threads:              1
    Integrals threads:           1
    Memory [MiB]:              357
    Algorithm:                Core
    Integral Cache:           NONE
    Schwarz Cutoff:          1E-12
    Fitting Condition:       1E-10

   => Auxiliary Basis Set <=

  Basis Set: (AUG-CC-PVDZ AUX)
    Blend: AUG-CC-PVDZ-JKFIT
    Number of shells: 80
    Number of basis functions: 256
    Number of Cartesian functions: 300
    Spherical Harmonics?: true
    Max angular momentum: 3

  Minimum eigenvalue in the overlap matrix is 4.5470562098E-02.
  Reciprocal condition number of the overlap matrix is 1.9989412312E-02.
    Using symmetric orthogonalization.

  ==> Pre-Iterations <==

  SCF Guess: Superposition of Atomic Densities via on-the-fly atomic UHF (no occupation information).

   -------------------------
    Irrep   Nso     Nmo    
   -------------------------
     A1        26      26 
     A2         4       4 
     B1        12      12 
     B2        12      12 
   -------------------------
    Total      54      54
   -------------------------

  ==> Iterations <==

                           Total Energy        Delta E     RMS |[F,P]|

   @DF-RHF iter SAD:  -526.79237843902547   -5.26792e+02   0.00000e+00 
   @DF-RHF iter   1:  -526.80073322893122   -8.35479e-03   7.25797e-04 DIIS/ADIIS
   @DF-RHF iter   2:  -526.80096878433744   -2.35555e-04   1.92835e-04 DIIS/ADIIS
   @DF-RHF iter   3:  -526.80098357767872   -1.47933e-05   4.37933e-06 DIIS
   @DF-RHF iter   4:  -526.80098359013869   -1.24600e-08   6.41724e-07 DIIS
   @DF-RHF iter   5:  -526.80098359060651   -4.67821e-10   1.40471e-08 DIIS
   @DF-RHF iter   6:  -526.80098359060662   -1.13687e-13   2.71229e-09 DIIS
  Energy and wave function converged.


  ==> Post-Iterations <==

    Orbital Energies [Eh]
    ---------------------

    Doubly Occupied:                                                      

       1A1  -118.610546     2A1   -12.322763     3A1    -9.571331  
       1B2    -9.571328     1B1    -9.571328     4A1    -1.278885  
       5A1    -0.592256     2B1    -0.592251     2B2    -0.592251  

    Virtual:                                                              

       6A1     0.086725     7A1     0.116346     3B2     0.121000  
       3B1     0.121000     4B2     0.155118     4B1     0.155118  
       8A1     0.157450     9A1     0.204180    10A1     0.511474  
      11A1     0.538635     5B1     0.540785     5B2     0.540785  
      12A1     0.541419     1A2     0.541419     6B2     0.574164  
       6B1     0.574164    13A1     0.595695     2A2     0.796536  
      14A1     0.796536     7B2     0.796560     7B1     0.796560  
      15A1     0.798208     8B2     0.970714     8B1     0.970714  
      16A1     0.989566    17A1     1.335423    18A1     1.610304  
       3A2     1.610304     9B2     1.610508     9B1     1.610508  
      19A1     1.613557    20A1     1.897534    10B1     2.438271  
      10B2     2.438271    21A1     2.450549     4A2     3.103882  
      22A1     3.103882    11B1     3.104056    11B2     3.104056  
      23A1     3.107052    24A1     9.178577    12B1    27.716659  
      12B2    27.716659    25A1    27.731526    26A1   176.799766  

    Final Occupation by Irrep:
             A1    A2    B1    B2 
    DOCC [     5,    0,    2,    2 ]
    NA   [     5,    0,    2,    2 ]
    NB   [     5,    0,    2,    2 ]

  @DF-RHF Final Energy:  -526.80098359060662

   => Energetics <=

    Nuclear Repulsion Energy =              0.0000000000000000
    One-Electron Energy =                -728.1960842931471234
    Two-Electron Energy =                 201.3951007025405033
    Total Energy =                       -526.8009835906066201

Computation Completed


Properties will be evaluated at   0.000000,   0.000000,   0.000000 [a0]

Properties computed using the SCF density matrix


 Multipole Moments:

 ------------------------------------------------------------------------------------
     Multipole            Electronic (a.u.)      Nuclear  (a.u.)        Total (a.u.)
 ------------------------------------------------------------------------------------

 L = 1.  Multiply by 2.5417464519 to convert [e a0] to [Debye]
 Dipole X            :          0.0000000            0.0000000            0.0000000
 Dipole Y            :          0.0000000            0.0000000            0.0000000
 Dipole Z            :        -90.3155273           90.3158762            0.0003489
 Magnitude           :                                                    0.0003489

 ------------------------------------------------------------------------------------

*** tstop() called on cm013.hpc.nyu.edu at Thu Nov  7 15:46:14 2024
Module time:
	user time   =       0.44 seconds =       0.01 minutes
	system time =       0.03 seconds =       0.00 minutes
	total time  =          0 seconds =       0.00 minutes
Total time:
	user time   =     944.11 seconds =      15.74 minutes
	system time =      94.12 seconds =       1.57 minutes
	total time  =       2328 seconds =      38.80 minutes
 MINTS: Wrapper to libmints.
   by Justin Turney

   Calculation information:
      Number of threads:                 1
      Number of atoms:                   2
      Number of AO shells:              22
      Number of SO shells:              22
      Number of primitives:            106
      Number of atomic orbitals:        58
      Number of basis functions:        54

      Number of irreps:                  4
      Integral cutoff                 1.00e-12
      Number of functions per irrep: [  26    4   12   12 ]

 OEINTS: Overlap, kinetic, potential, dipole, and quadrupole integrals
         stored in file 35.

      Computing two-electron integrals...done
      Computed 159683 non-zero two-electron integrals.
        Stored in file 33.


*** tstart() called on cm013.hpc.nyu.edu
*** at Thu Nov  7 15:46:16 2024


	Wfn Parameters:
	--------------------
	Wavefunction         = CCSD_T
	Number of irreps     = 4
	Number of MOs        = 54
	Number of active MOs = 49
	AO-Basis             = NONE
	Semicanonical        = false
	Reference            = RHF
	Print Level          = 1

	IRREP	# MOs	# FZDC	# DOCC	# SOCC	# VIRT	# FZVR
	-----	-----	------	------	------	------	------
	 A1	   26	    3	    2	    0	    21	    0
	 A2	   4	    0	    0	    0	    4	    0
	 B1	   12	    1	    1	    0	    10	    0
	 B2	   12	    1	    1	    0	    10	    0
	Transforming integrals...
	IWL integrals will be deleted.
	(OO|OO)...
	Presorting SO-basis two-electron integrals.
	Sorting File: SO Ints (nn|nn) nbuckets = 1
	Constructing frozen core operators
	Starting first half-transformation.
	Sorting half-transformed integrals.
	First half integral transformation complete.
	Starting second half-transformation.
	Two-electron integral transformation complete.
	(OO|OV)...
	Starting second half-transformation.
	Two-electron integral transformation complete.
	(OO|VV)...
	Starting second half-transformation.
	Two-electron integral transformation complete.
	(OV|OO)...
	Starting first half-transformation.
	Sorting half-transformed integrals.
	First half integral transformation complete.
	Starting second half-transformation.
	Two-electron integral transformation complete.
	(OV|OV)...
	Starting second half-transformation.
	Two-electron integral transformation complete.
	(OV|VV)...
	Starting second half-transformation.
	Two-electron integral transformation complete.
	(VV|OO)...
	Starting first half-transformation.
	Sorting half-transformed integrals.
	First half integral transformation complete.
	Starting second half-transformation.
	Two-electron integral transformation complete.
	(VV|OV)...
	Starting second half-transformation.
	Two-electron integral transformation complete.
	(VV|VV)...
	Starting second half-transformation.
	Two-electron integral transformation complete.
	Frozen core energy     =   -505.93058137209556

	Size of irrep 0 of <ab|cd> integrals:      0.432 (MW) /      3.453 (MB)
	Size of irrep 1 of <ab|cd> integrals:      0.135 (MW) /      1.083 (MB)
	Size of irrep 2 of <ab|cd> integrals:      0.250 (MW) /      2.000 (MB)
	Size of irrep 3 of <ab|cd> integrals:      0.250 (MW) /      2.000 (MB)
	Total:                                     1.067 (MW) /      8.537 (MB)

	Size of irrep 0 of <ia|bc> integrals:      0.041 (MW) /      0.326 (MB)
	Size of irrep 1 of <ia|bc> integrals:      0.010 (MW) /      0.082 (MB)
	Size of irrep 2 of <ia|bc> integrals:      0.022 (MW) /      0.180 (MB)
	Size of irrep 3 of <ia|bc> integrals:      0.022 (MW) /      0.180 (MB)
	Total:                                     0.096 (MW) /      0.768 (MB)

	Size of irrep 0 of tijab amplitudes:       0.004 (MW) /      0.032 (MB)
	Size of irrep 1 of tijab amplitudes:       0.001 (MW) /      0.006 (MB)
	Size of irrep 2 of tijab amplitudes:       0.002 (MW) /      0.016 (MB)
	Size of irrep 3 of tijab amplitudes:       0.002 (MW) /      0.016 (MB)
	Total:                                     0.009 (MW) /      0.069 (MB)

	Nuclear Rep. energy          =      0.00000000000000
	SCF energy                   =   -526.80098359060662
	One-electron energy          =    -35.62953396748216
	Two-electron energy          =     14.75913728414969
	Reference energy             =   -526.80097805542800

*** tstop() called on cm013.hpc.nyu.edu at Thu Nov  7 15:46:16 2024
Module time:
	user time   =       0.10 seconds =       0.00 minutes
	system time =       0.06 seconds =       0.00 minutes
	total time  =          0 seconds =       0.00 minutes
Total time:
	user time   =     945.67 seconds =      15.76 minutes
	system time =      94.19 seconds =       1.57 minutes
	total time  =       2330 seconds =      38.83 minutes
            **************************
            *                        *
            *        CCENERGY        *
            *                        *
            **************************

    Nuclear Rep. energy (wfn)     =    0.000000000000000
    SCF energy          (wfn)     = -526.800983590606620
    Reference energy    (file100) = -526.800978055428004

    Input parameters:
    -----------------
    Wave function   =     CCSD_T
    Reference wfn   =     RHF
    Brueckner       =     No
    Memory (Mbytes) =     500.0
    Maxiter         =     50
    R_Convergence   =     1.0e-07
    E_Convergence   =     1.0e-06
    Restart         =     Yes
    DIIS            =     Yes
    AO Basis        =     NONE
    ABCD            =     NEW
    Cache Level     =     2
    Cache Type      =     LOW
    Print Level     =     1
    Num. of threads =     1
    # Amps to Print =     10
    Print MP2 Amps? =     No
    Analyze T2 Amps =     No
    Print Pair Ener =     No
    Local CC        =     No
    SCS-MP2         =     False
    SCSN-MP2        =     False
    SCS-CCSD        =     False

MP2 correlation energy -0.1543426883867588
                Solving CC Amplitude Equations
                ------------------------------
  Iter             Energy              RMS        T1Diag      D1Diag    New D1Diag    D2Diag
  ----     ---------------------    ---------   ----------  ----------  ----------   --------
     0        -0.154342688386759    0.000e+00    0.000000    0.000000    0.000000    0.104846
     1        -0.164342012649914    2.263e-02    0.002852    0.004524    0.004524    0.113960
     2        -0.166095534067102    5.767e-03    0.003406    0.005311    0.005311    0.116564
     3        -0.166204883828957    1.084e-03    0.003669    0.005734    0.005734    0.116888
     4        -0.166206522104855    2.219e-04    0.003709    0.005789    0.005789    0.116939
     5        -0.166203632079086    4.407e-05    0.003716    0.005799    0.005799    0.116935
     6        -0.166203653903420    7.937e-06    0.003717    0.005800    0.005800    0.116934
     7        -0.166203728692548    2.408e-06    0.003717    0.005800    0.005800    0.116934
     8        -0.166203738164336    6.327e-07    0.003717    0.005800    0.005800    0.116934
     9        -0.166203736535320    1.562e-07    0.003717    0.005800    0.005800    0.116934
    10        -0.166203736927130    5.276e-08    0.003717    0.005800    0.005800    0.116934

    Iterations converged.


    Largest TIA Amplitudes:
              2  26        -0.0049757266
              3  36        -0.0049757266
              1   2         0.0036632331
              1   3        -0.0029828056
              0  11         0.0025186538
              2  30        -0.0022519074
              3  40        -0.0022519074
              1  10        -0.0021152536
              2  25         0.0019204056
              3  35         0.0019204056

    Largest TIjAb Amplitudes:
      1   1   5   5        -0.0287647318
      2   2   6   6        -0.0281311059
      2   2  21  21        -0.0281311059
      3   3   6   6        -0.0281311059
      3   3  21  21        -0.0281311059
      1   1  27  27        -0.0274127920
      1   1  37  37        -0.0274127920
      2   2  27  27        -0.0274117170
      3   3  37  37        -0.0274117170
      2   2  30  30        -0.0272151325

    SCF energy       (wfn)                    = -526.800983590606620
    Reference energy (file100)                = -526.800978055428004

    Opposite-spin MP2 correlation energy      =   -0.112006771784657
    Same-spin MP2 correlation energy          =   -0.042335916602102
    Singles MP2 correlation energy            =   -0.000000000000000
    MP2 correlation energy                    =   -0.154342688386759
      * MP2 total energy                      = -526.955320743814809

    Opposite-spin CCSD correlation energy     =   -0.125282473180973
    Same-spin CCSD correlation energy         =   -0.040921263746157
    Singles CCSD correlation energy           =    0.000000000000000
    CCSD correlation energy                   =   -0.166203736927130
      * CCSD total energy                     = -526.967181792355177

            **************************
            *                        *
            *        CCTRIPLES       *
            *                        *
            **************************


    Wave function   =    CCSD_T
    Reference wfn   =      RHF

    Nuclear Rep. energy (wfn)                =    0.000000000000000
    SCF energy          (wfn)                = -526.800983590606620
    Reference energy    (file100)            = -526.800978055428004
    CCSD energy         (file100)            =   -0.166203736927130
    Total CCSD energy   (file100)            = -526.967181792355177

    Number of ijk index combinations:               20
    Memory available in words               :        62500000
    Approx. words needed per explicit thread:           37044
    Number of threads for explicit ijk threading:    1

    MKL num_threads set to 1 for explicit threading.

    (T) energy                                =   -0.002526858180500
      * CCSD(T) total energy                  = -526.969708650535608


    Psi4 stopped on: Thursday, 07 November 2024 03:46PM
    Psi4 wall time for execution: 0:00:02.47


    -----------------------------------------------------------------------
          Psi4: An Open-Source Ab Initio Electronic Structure Package
                               Psi4 1.7a1.dev44 

                         Git: Rev {master} 2792bff 


    D. G. A. Smith, L. A. Burns, A. C. Simmonett, R. M. Parrish,
    M. C. Schieber, R. Galvelis, P. Kraus, H. Kruse, R. Di Remigio,
    A. Alenaizan, A. M. James, S. Lehtola, J. P. Misiewicz, M. Scheurer,
    R. A. Shaw, J. B. Schriber, Y. Xie, Z. L. Glick, D. A. Sirianni,
    J. S. O'Brien, J. M. Waldrop, A. Kumar, E. G. Hohenstein,
    B. P. Pritchard, B. R. Brooks, H. F. Schaefer III, A. Yu. Sokolov,
    K. Patkowski, A. E. DePrince III, U. Bozkaya, R. A. King,
    F. A. Evangelista, J. M. Turney, T. D. Crawford, C. D. Sherrill,
    J. Chem. Phys. 152(18) 184108 (2020). https://doi.org/10.1063/5.0006002

                            Additional Code Authors
    E. T. Seidl, C. L. Janssen, E. F. Valeev, M. L. Leininger,
    J. F. Gonthier, R. M. Richard, H. R. McAlexander, M. Saitow, X. Wang,
    P. Verma, M. H. Lechner, and A. Jiang

             Previous Authors, Complete List of Code Contributors,
                       and Citations for Specific Modules
    https://github.com/psi4/psi4/blob/master/codemeta.json
    https://github.com/psi4/psi4/graphs/contributors
    http://psicode.org/psi4manual/master/introduction.html#citing-psifour

    -----------------------------------------------------------------------


    Psi4 started on: Thursday, 07 November 2024 03:05PM

    Process ID: 313079
    Host:       cm013.hpc.nyu.edu
    PSIDATADIR: /ext3/miniconda3/share/psi4
    Memory:     476.8 MiB
    Threads:    1
    
  ==> Input QCSchema <==

--------------------------------------------------------------------------
{'driver': 'energy',
 'extras': {'psiapi': True, 'wfn_qcvars_only': True},
 'id': None,
 'keywords': {'DF_INTS_IO': 'NONE',
              'FREEZE_CORE': '1',
              'REFERENCE': 'RHF',
              'SAPT__D_CONVERGENCE': 1e-09,
              'SAPT__E_CONVERGENCE': 1e-09,
              'SAPT__SAPT_LEVEL': 'SAPT0',
              'SCF_TYPE': 'DF',
              'SCF__INTS_TOLERANCE': 1e-12,
              'function_kwargs': {}},
 'model': {'basis': 'aug-cc-pvdz', 'method': 'ccsd(t)'},
 'molecule': {'atom_labels': ['', ''],
              'atomic_numbers': [18, 18],
              'fix_com': True,
              'fix_orientation': True,
              'fragment_charges': [0.0, 0.0],
              'fragment_multiplicities': [1, 1],
              'fragments': [[0], [1]],
              'geometry': [0.0, 0.0, -5.01754867793975, 0.0, 0.0, 5.01754867793975],
              'mass_numbers': [40, 40],
              'masses': [39.9623831237, 39.9623831237],
              'molecular_charge': 0.0,
              'molecular_multiplicity': 1,
              'name': 'Ar2',
              'provenance': {'creator': 'QCElemental',
                             'routine': 'qcelemental.molparse.from_string',
                             'version': 'v0.25.1'},
              'real': [True, False],
              'schema_name': 'qcschema_molecule',
              'schema_version': 2,
              'symbols': ['Ar', 'Ar'],
              'validated': True},
 'protocols': {'stdout': True},
 'provenance': {'creator': 'QCElemental', 'routine': 'qcelemental.models.results', 'version': 'v0.25.1'},
 'schema_name': 'qcschema_input',
 'schema_version': 1}
--------------------------------------------------------------------------

Scratch directory: /tmp/

*** tstart() called on cm013.hpc.nyu.edu
*** at Thu Nov  7 15:46:16 2024

   => Loading Basis Set <=

    Name: AUG-CC-PVDZ
    Role: ORBITAL
    Keyword: BASIS
    atoms 1-2 entry AR         line   834 file /ext3/miniconda3/share/psi4/basis/aug-cc-pvdz.gbs 


         ---------------------------------------------------------
                                   SCF
               by Justin Turney, Rob Parrish, Andy Simmonett
                          and Daniel G. A. Smith
                              RHF Reference
                        1 Threads,    476 MiB Core
         ---------------------------------------------------------

  ==> Geometry <==

    Molecular point group: c2v
    Full point group: C_inf_v

    Geometry (in Bohr), charge = 0, multiplicity = 1:

       Center              X                  Y                   Z               Mass       
    ------------   -----------------  -----------------  -----------------  -----------------
         AR           0.000000000000     0.000000000000    -5.017548677940    39.962383123700
      Gh(AR)          0.000000000000     0.000000000000     5.017548677940    39.962383123700

  Running in c2v symmetry.

  Rotational constants: A = ************  B =      0.02992  C =      0.02992 [cm^-1]
  Rotational constants: A = ************  B =    896.91311  C =    896.91311 [MHz]
  Nuclear repulsion =    0.000000000000000

  Charge       = 0
  Multiplicity = 1
  Electrons    = 18
  Nalpha       = 9
  Nbeta        = 9

  ==> Algorithm <==

  SCF Algorithm Type is DF.
  DIIS enabled.
  MOM disabled.
  Fractional occupation disabled.
  Guess Type is SAD.
  Energy threshold   = 1.00e-08
  Density threshold  = 1.00e-08
  Integral threshold = 1.00e-12

  ==> Primary Basis <==

  Basis Set: AUG-CC-PVDZ
    Blend: AUG-CC-PVDZ
    Number of shells: 22
    Number of basis functions: 54
    Number of Cartesian functions: 58
    Spherical Harmonics?: true
    Max angular momentum: 2

   => Loading Basis Set <=

    Name: (AUG-CC-PVDZ AUX)
    Role: JKFIT
    Keyword: DF_BASIS_SCF
    atoms 1-2 entry AR         line   854 file /ext3/miniconda3/share/psi4/basis/aug-cc-pvdz-jkfit.gbs 

  ==> Integral Setup <==

  ==> DiskDFJK: Density-Fitted J/K Matrices <==

    J tasked:                  Yes
    K tasked:                  Yes
    wK tasked:                  No
    OpenMP threads:              1
    Integrals threads:           1
    Memory [MiB]:              357
    Algorithm:                Core
    Integral Cache:           NONE
    Schwarz Cutoff:          1E-12
    Fitting Condition:       1E-10

   => Auxiliary Basis Set <=

  Basis Set: (AUG-CC-PVDZ AUX)
    Blend: AUG-CC-PVDZ-JKFIT
    Number of shells: 80
    Number of basis functions: 256
    Number of Cartesian functions: 300
    Spherical Harmonics?: true
    Max angular momentum: 3

  Minimum eigenvalue in the overlap matrix is 4.5470562098E-02.
  Reciprocal condition number of the overlap matrix is 1.9989412312E-02.
    Using symmetric orthogonalization.

  ==> Pre-Iterations <==

  SCF Guess: Superposition of Atomic Densities via on-the-fly atomic UHF (no occupation information).

   -------------------------
    Irrep   Nso     Nmo    
   -------------------------
     A1        26      26 
     A2         4       4 
     B1        12      12 
     B2        12      12 
   -------------------------
    Total      54      54
   -------------------------

  ==> Iterations <==

                           Total Energy        Delta E     RMS |[F,P]|

   @DF-RHF iter SAD:  -526.79237843902206   -5.26792e+02   0.00000e+00 
   @DF-RHF iter   1:  -526.80073322892747   -8.35479e-03   7.25797e-04 DIIS/ADIIS
   @DF-RHF iter   2:  -526.80096878433301   -2.35555e-04   1.92835e-04 DIIS/ADIIS
   @DF-RHF iter   3:  -526.80098357767440   -1.47933e-05   4.37933e-06 DIIS
   @DF-RHF iter   4:  -526.80098359013471   -1.24603e-08   6.41724e-07 DIIS
   @DF-RHF iter   5:  -526.80098359060230   -4.67594e-10   1.40471e-08 DIIS
   @DF-RHF iter   6:  -526.80098359060253   -2.27374e-13   2.71229e-09 DIIS
  Energy and wave function converged.


  ==> Post-Iterations <==

    Orbital Energies [Eh]
    ---------------------

    Doubly Occupied:                                                      

       1A1  -118.610546     2A1   -12.322763     3A1    -9.571331  
       1B1    -9.571328     1B2    -9.571328     4A1    -1.278885  
       5A1    -0.592256     2B1    -0.592251     2B2    -0.592251  

    Virtual:                                                              

       6A1     0.086725     7A1     0.116346     3B2     0.121000  
       3B1     0.121000     4B1     0.155118     4B2     0.155118  
       8A1     0.157450     9A1     0.204180    10A1     0.511474  
      11A1     0.538635     5B2     0.540785     5B1     0.540785  
      12A1     0.541419     1A2     0.541419     6B2     0.574164  
       6B1     0.574164    13A1     0.595695     2A2     0.796536  
      14A1     0.796536     7B2     0.796560     7B1     0.796560  
      15A1     0.798208     8B1     0.970714     8B2     0.970714  
      16A1     0.989566    17A1     1.335423     3A2     1.610304  
      18A1     1.610304     9B1     1.610508     9B2     1.610508  
      19A1     1.613557    20A1     1.897534    10B2     2.438271  
      10B1     2.438271    21A1     2.450549     4A2     3.103882  
      22A1     3.103882    11B2     3.104056    11B1     3.104056  
      23A1     3.107052    24A1     9.178577    12B1    27.716659  
      12B2    27.716659    25A1    27.731526    26A1   176.799766  

    Final Occupation by Irrep:
             A1    A2    B1    B2 
    DOCC [     5,    0,    2,    2 ]
    NA   [     5,    0,    2,    2 ]
    NB   [     5,    0,    2,    2 ]

  @DF-RHF Final Energy:  -526.80098359060253

   => Energetics <=

    Nuclear Repulsion Energy =              0.0000000000000000
    One-Electron Energy =                -728.1960842931420075
    Two-Electron Energy =                 201.3951007025395370
    Total Energy =                       -526.8009835906025273

Computation Completed


Properties will be evaluated at   0.000000,   0.000000,   0.000000 [a0]

Properties computed using the SCF density matrix


 Multipole Moments:

 ------------------------------------------------------------------------------------
     Multipole            Electronic (a.u.)      Nuclear  (a.u.)        Total (a.u.)
 ------------------------------------------------------------------------------------

 L = 1.  Multiply by 2.5417464519 to convert [e a0] to [Debye]
 Dipole X            :          0.0000000            0.0000000            0.0000000
 Dipole Y            :          0.0000000            0.0000000            0.0000000
 Dipole Z            :         90.3155273          -90.3158762           -0.0003489
 Magnitude           :                                                    0.0003489

 ------------------------------------------------------------------------------------

*** tstop() called on cm013.hpc.nyu.edu at Thu Nov  7 15:46:17 2024
Module time:
	user time   =       0.44 seconds =       0.01 minutes
	system time =       0.03 seconds =       0.00 minutes
	total time  =          1 seconds =       0.02 minutes
Total time:
	user time   =     946.29 seconds =      15.77 minutes
	system time =      94.35 seconds =       1.57 minutes
	total time  =       2331 seconds =      38.85 minutes
 MINTS: Wrapper to libmints.
   by Justin Turney

   Calculation information:
      Number of threads:                 1
      Number of atoms:                   2
      Number of AO shells:              22
      Number of SO shells:              22
      Number of primitives:            106
      Number of atomic orbitals:        58
      Number of basis functions:        54

      Number of irreps:                  4
      Integral cutoff                 1.00e-12
      Number of functions per irrep: [  26    4   12   12 ]

 OEINTS: Overlap, kinetic, potential, dipole, and quadrupole integrals
         stored in file 35.

      Computing two-electron integrals...done
      Computed 159683 non-zero two-electron integrals.
        Stored in file 33.


*** tstart() called on cm013.hpc.nyu.edu
*** at Thu Nov  7 15:46:18 2024


	Wfn Parameters:
	--------------------
	Wavefunction         = CCSD_T
	Number of irreps     = 4
	Number of MOs        = 54
	Number of active MOs = 49
	AO-Basis             = NONE
	Semicanonical        = false
	Reference            = RHF
	Print Level          = 1

	IRREP	# MOs	# FZDC	# DOCC	# SOCC	# VIRT	# FZVR
	-----	-----	------	------	------	------	------
	 A1	   26	    3	    2	    0	    21	    0
	 A2	   4	    0	    0	    0	    4	    0
	 B1	   12	    1	    1	    0	    10	    0
	 B2	   12	    1	    1	    0	    10	    0
	Transforming integrals...
	IWL integrals will be deleted.
	(OO|OO)...
	Presorting SO-basis two-electron integrals.
	Sorting File: SO Ints (nn|nn) nbuckets = 1
	Constructing frozen core operators
	Starting first half-transformation.
	Sorting half-transformed integrals.
	First half integral transformation complete.
	Starting second half-transformation.
	Two-electron integral transformation complete.
	(OO|OV)...
	Starting second half-transformation.
	Two-electron integral transformation complete.
	(OO|VV)...
	Starting second half-transformation.
	Two-electron integral transformation complete.
	(OV|OO)...
	Starting first half-transformation.
	Sorting half-transformed integrals.
	First half integral transformation complete.
	Starting second half-transformation.
	Two-electron integral transformation complete.
	(OV|OV)...
	Starting second half-transformation.
	Two-electron integral transformation complete.
	(OV|VV)...
	Starting second half-transformation.
	Two-electron integral transformation complete.
	(VV|OO)...
	Starting first half-transformation.
	Sorting half-transformed integrals.
	First half integral transformation complete.
	Starting second half-transformation.
	Two-electron integral transformation complete.
	(VV|OV)...
	Starting second half-transformation.
	Two-electron integral transformation complete.
	(VV|VV)...
	Starting second half-transformation.
	Two-electron integral transformation complete.
	Frozen core energy     =   -505.93058137209528

	Size of irrep 0 of <ab|cd> integrals:      0.432 (MW) /      3.453 (MB)
	Size of irrep 1 of <ab|cd> integrals:      0.135 (MW) /      1.083 (MB)
	Size of irrep 2 of <ab|cd> integrals:      0.250 (MW) /      2.000 (MB)
	Size of irrep 3 of <ab|cd> integrals:      0.250 (MW) /      2.000 (MB)
	Total:                                     1.067 (MW) /      8.537 (MB)

	Size of irrep 0 of <ia|bc> integrals:      0.041 (MW) /      0.326 (MB)
	Size of irrep 1 of <ia|bc> integrals:      0.010 (MW) /      0.082 (MB)
	Size of irrep 2 of <ia|bc> integrals:      0.022 (MW) /      0.180 (MB)
	Size of irrep 3 of <ia|bc> integrals:      0.022 (MW) /      0.180 (MB)
	Total:                                     0.096 (MW) /      0.768 (MB)

	Size of irrep 0 of tijab amplitudes:       0.004 (MW) /      0.032 (MB)
	Size of irrep 1 of tijab amplitudes:       0.001 (MW) /      0.006 (MB)
	Size of irrep 2 of tijab amplitudes:       0.002 (MW) /      0.016 (MB)
	Size of irrep 3 of tijab amplitudes:       0.002 (MW) /      0.016 (MB)
	Total:                                     0.009 (MW) /      0.069 (MB)

	Nuclear Rep. energy          =      0.00000000000000
	SCF energy                   =   -526.80098359060253
	One-electron energy          =    -35.62953396748117
	Two-electron energy          =     14.75913728414864
[...]
              'provenance': {'creator': 'QCElemental',
                             'routine': 'qcelemental.molparse.from_string',
                             'version': 'v0.25.1'},
              'real': [True, True],
              'schema_name': 'qcschema_molecule',
              'schema_version': 2,
              'symbols': ['Ar', 'Ar'],
              'validated': True},
 'protocols': {'stdout': True},
 'provenance': {'creator': 'QCElemental', 'routine': 'qcelemental.models.results', 'version': 'v0.25.1'},
 'schema_name': 'qcschema_input',
 'schema_version': 1}
--------------------------------------------------------------------------

Scratch directory: /tmp/

*** tstart() called on cm013.hpc.nyu.edu
*** at Thu Nov  7 15:47:13 2024

   => Loading Basis Set <=

    Name: AUG-CC-PVDZ
    Role: ORBITAL
    Keyword: BASIS
    atoms 1-2 entry AR         line   834 file /ext3/miniconda3/share/psi4/basis/aug-cc-pvdz.gbs 


         ---------------------------------------------------------
                                   SCF
               by Justin Turney, Rob Parrish, Andy Simmonett
                          and Daniel G. A. Smith
                              RHF Reference
                        1 Threads,    476 MiB Core
         ---------------------------------------------------------

  ==> Geometry <==

    Molecular point group: d2h
    Full point group: D_inf_h

    Geometry (in Bohr), charge = 0, multiplicity = 1:

       Center              X                  Y                   Z               Mass       
    ------------   -----------------  -----------------  -----------------  -----------------
         AR           0.000000000000     0.000000000000    -5.669178376373    39.962383123700
         AR           0.000000000000     0.000000000000     5.669178376373    39.962383123700

  Running in d2h symmetry.

  Rotational constants: A = ************  B =      0.02344  C =      0.02344 [cm^-1]
  Rotational constants: A = ************  B =    702.57601  C =    702.57601 [MHz]
  Nuclear repulsion =   28.575569376180024

  Charge       = 0
  Multiplicity = 1
  Electrons    = 36
  Nalpha       = 18
  Nbeta        = 18

  ==> Algorithm <==

  SCF Algorithm Type is DF.
  DIIS enabled.
  MOM disabled.
  Fractional occupation disabled.
  Guess Type is SAD.
  Energy threshold   = 1.00e-08
  Density threshold  = 1.00e-08
  Integral threshold = 1.00e-12

  ==> Primary Basis <==

  Basis Set: AUG-CC-PVDZ
    Blend: AUG-CC-PVDZ
    Number of shells: 22
    Number of basis functions: 54
    Number of Cartesian functions: 58
    Spherical Harmonics?: true
    Max angular momentum: 2

   => Loading Basis Set <=

    Name: (AUG-CC-PVDZ AUX)
    Role: JKFIT
    Keyword: DF_BASIS_SCF
    atoms 1-2 entry AR         line   854 file /ext3/miniconda3/share/psi4/basis/aug-cc-pvdz-jkfit.gbs 

  ==> Integral Setup <==

  ==> DiskDFJK: Density-Fitted J/K Matrices <==

    J tasked:                  Yes
    K tasked:                  Yes
    wK tasked:                  No
    OpenMP threads:              1
    Integrals threads:           1
    Memory [MiB]:              357
    Algorithm:                Core
    Integral Cache:           NONE
    Schwarz Cutoff:          1E-12
    Fitting Condition:       1E-10

   => Auxiliary Basis Set <=

  Basis Set: (AUG-CC-PVDZ AUX)
    Blend: AUG-CC-PVDZ-JKFIT
    Number of shells: 80
    Number of basis functions: 256
    Number of Cartesian functions: 300
    Spherical Harmonics?: true
    Max angular momentum: 3

  Minimum eigenvalue in the overlap matrix is 4.8029169108E-02.
  Reciprocal condition number of the overlap matrix is 2.1562637947E-02.
    Using symmetric orthogonalization.

  ==> Pre-Iterations <==

  SCF Guess: Superposition of Atomic Densities via on-the-fly atomic UHF (no occupation information).

   -------------------------
    Irrep   Nso     Nmo    
   -------------------------
     Ag        13      13 
     B1g        2       2 
     B2g        6       6 
     B3g        6       6 
     Au         2       2 
     B1u       13      13 
     B2u        6       6 
     B3u        6       6 
   -------------------------
    Total      54      54
   -------------------------

  ==> Iterations <==

                           Total Energy        Delta E     RMS |[F,P]|

   @DF-RHF iter SAD: -1053.58475796382777   -1.05358e+03   0.00000e+00 
   @DF-RHF iter   1: -1053.60145949263210   -1.67015e-02   1.45067e-03 DIIS/ADIIS
   @DF-RHF iter   2: -1053.60193048812198   -4.70995e-04   3.85548e-04 DIIS/ADIIS
   @DF-RHF iter   3: -1053.60196007147510   -2.95834e-05   8.96807e-06 DIIS
   @DF-RHF iter   4: -1053.60196009638616   -2.49111e-08   1.27911e-06 DIIS
   @DF-RHF iter   5: -1053.60196009730043   -9.14270e-10   2.11701e-08 DIIS
   @DF-RHF iter   6: -1053.60196009730043    0.00000e+00   2.67775e-09 DIIS
  Energy and wave function converged.


  ==> Post-Iterations <==

    Orbital Energies [Eh]
    ---------------------

    Doubly Occupied:                                                      

       1B1u -118.610539     1Ag  -118.610539     2B1u  -12.322765  
       2Ag   -12.322763     3B1u   -9.571330     3Ag    -9.571329  
       1B2g   -9.571327     1B3g   -9.571327     1B3u   -9.571327  
       1B2u   -9.571327     4Ag    -1.278894     4B1u   -1.278890  
       5Ag    -0.592362     2B2u   -0.592268     2B3u   -0.592268  
       2B3g   -0.592250     2B2g   -0.592250     5B1u   -0.592160  

    Virtual:                                                              

       6Ag     0.122159     3B2u    0.142299     3B3u    0.142299  
       6B1u    0.153926     3B3g    0.158281     3B2g    0.158281  
       7Ag     0.163296     7B1u    0.206726     8Ag     0.541414  
       1B1g    0.541414     1Au     0.541415     8B1u    0.541415  
       4B3u    0.541419     4B2u    0.541419     4B2g    0.541458  
       4B3g    0.541458     9Ag     0.541675     9B1u    0.542375  
      10Ag     0.960390     5B2u    0.963000     5B3u    0.963000  
       5B3g    0.976098     5B2g    0.976098    10B1u    0.997352  
      11Ag     1.315128    11B1u    1.342393    12Ag     1.610295  
       2B1g    1.610295    12B1u    1.610296     2Au     1.610296  
       6B3u    1.610314     6B2u    1.610314     6B2g    1.610355  
       6B3g    1.610355    13Ag     1.610827    13B1u    1.612049  

    Final Occupation by Irrep:
             Ag   B1g   B2g   B3g    Au   B1u   B2u   B3u 
    DOCC [     5,    0,    2,    2,    0,    5,    2,    2 ]
    NA   [     5,    0,    2,    2,    0,    5,    2,    2 ]
    NB   [     5,    0,    2,    2,    0,    5,    2,    2 ]

  @DF-RHF Final Energy: -1053.60196009730043

   => Energetics <=

    Nuclear Repulsion Energy =             28.5755693761800238
    One-Electron Energy =               -1513.5432305504673423
    Two-Electron Energy =                 431.3657010769868521
    Total Energy =                      -1053.6019600973004344

Computation Completed


Properties will be evaluated at   0.000000,   0.000000,   0.000000 [a0]

Properties computed using the SCF density matrix


 Multipole Moments:

 ------------------------------------------------------------------------------------
     Multipole            Electronic (a.u.)      Nuclear  (a.u.)        Total (a.u.)
 ------------------------------------------------------------------------------------

 L = 1.  Multiply by 2.5417464519 to convert [e a0] to [Debye]
 Dipole X            :          0.0000000            0.0000000            0.0000000
 Dipole Y            :          0.0000000            0.0000000            0.0000000
 Dipole Z            :          0.0000000            0.0000000            0.0000000
 Magnitude           :                                                    0.0000000

 ------------------------------------------------------------------------------------

*** tstop() called on cm013.hpc.nyu.edu at Thu Nov  7 15:47:13 2024
Module time:
	user time   =       0.46 seconds =       0.01 minutes
	system time =       0.02 seconds =       0.00 minutes
	total time  =          0 seconds =       0.00 minutes
Total time:
	user time   =     996.01 seconds =      16.60 minutes
	system time =      99.32 seconds =       1.66 minutes
	total time  =       2387 seconds =      39.78 minutes
 MINTS: Wrapper to libmints.
   by Justin Turney

   Calculation information:
      Number of threads:                 1
      Number of atoms:                   2
      Number of AO shells:              22
      Number of SO shells:              11
      Number of primitives:            106
      Number of atomic orbitals:        58
      Number of basis functions:        54

      Number of irreps:                  8
      Integral cutoff                 1.00e-12
      Number of functions per irrep: [  13    2    6    6    2   13    6    6 ]

 OEINTS: Overlap, kinetic, potential, dipole, and quadrupole integrals
         stored in file 35.

      Computing two-electron integrals...done
      Computed 134055 non-zero two-electron integrals.
        Stored in file 33.


*** tstart() called on cm013.hpc.nyu.edu
*** at Thu Nov  7 15:47:14 2024


	Wfn Parameters:
	--------------------
	Wavefunction         = CCSD_T
	Number of irreps     = 8
	Number of MOs        = 54
	Number of active MOs = 44
	AO-Basis             = NONE
	Semicanonical        = false
	Reference            = RHF
	Print Level          = 1

	IRREP	# MOs	# FZDC	# DOCC	# SOCC	# VIRT	# FZVR
	-----	-----	------	------	------	------	------
	 Ag	   13	    3	    2	    0	    8	    0
	 B1g	   2	    0	    0	    0	    2	    0
	 B2g	   6	    1	    1	    0	    4	    0
	 B3g	   6	    1	    1	    0	    4	    0
	 Au	   2	    0	    0	    0	    2	    0
	 B1u	   13	    3	    2	    0	    8	    0
	 B2u	   6	    1	    1	    0	    4	    0
	 B3u	   6	    1	    1	    0	    4	    0
	Transforming integrals...
	IWL integrals will be deleted.
	(OO|OO)...
	Presorting SO-basis two-electron integrals.
	Sorting File: SO Ints (nn|nn) nbuckets = 1
	Constructing frozen core operators
	Starting first half-transformation.
	Sorting half-transformed integrals.
	First half integral transformation complete.
	Starting second half-transformation.
	Two-electron integral transformation complete.
	(OO|OV)...
	Starting second half-transformation.
	Two-electron integral transformation complete.
	(OO|VV)...
	Starting second half-transformation.
	Two-electron integral transformation complete.
	(OV|OO)...
	Starting first half-transformation.
	Sorting half-transformed integrals.
	First half integral transformation complete.
	Starting second half-transformation.
	Two-electron integral transformation complete.
	(OV|OV)...
	Starting second half-transformation.
	Two-electron integral transformation complete.
	(OV|VV)...
	Starting second half-transformation.
	Two-electron integral transformation complete.
	(VV|OO)...
	Starting first half-transformation.
	Sorting half-transformed integrals.
	First half integral transformation complete.
	Starting second half-transformation.
	Two-electron integral transformation complete.
	(VV|OV)...
	Starting second half-transformation.
	Two-electron integral transformation complete.
	(VV|VV)...
	Starting second half-transformation.
	Two-electron integral transformation complete.
	Frozen core energy     =  -1034.79217039215291

	Size of irrep 0 of <ab|cd> integrals:      0.040 (MW) /      0.320 (MB)
	Size of irrep 1 of <ab|cd> integrals:      0.016 (MW) /      0.131 (MB)
	Size of irrep 2 of <ab|cd> integrals:      0.026 (MW) /      0.205 (MB)
	Size of irrep 3 of <ab|cd> integrals:      0.026 (MW) /      0.205 (MB)
	Size of irrep 4 of <ab|cd> integrals:      0.016 (MW) /      0.131 (MB)
	Size of irrep 5 of <ab|cd> integrals:      0.040 (MW) /      0.320 (MB)
	Size of irrep 6 of <ab|cd> integrals:      0.026 (MW) /      0.205 (MB)
	Size of irrep 7 of <ab|cd> integrals:      0.026 (MW) /      0.205 (MB)
	Total:                                     0.215 (MW) /      1.721 (MB)

	Size of irrep 0 of <ia|bc> integrals:      0.010 (MW) /      0.077 (MB)
	Size of irrep 1 of <ia|bc> integrals:      0.003 (MW) /      0.025 (MB)
	Size of irrep 2 of <ia|bc> integrals:      0.006 (MW) /      0.046 (MB)
	Size of irrep 3 of <ia|bc> integrals:      0.006 (MW) /      0.046 (MB)
	Size of irrep 4 of <ia|bc> integrals:      0.003 (MW) /      0.025 (MB)
	Size of irrep 5 of <ia|bc> integrals:      0.010 (MW) /      0.077 (MB)
	Size of irrep 6 of <ia|bc> integrals:      0.006 (MW) /      0.046 (MB)
	Size of irrep 7 of <ia|bc> integrals:      0.006 (MW) /      0.046 (MB)
	Total:                                     0.048 (MW) /      0.387 (MB)

	Size of irrep 0 of tijab amplitudes:       0.002 (MW) /      0.019 (MB)
	Size of irrep 1 of tijab amplitudes:       0.001 (MW) /      0.004 (MB)
	Size of irrep 2 of tijab amplitudes:       0.001 (MW) /      0.010 (MB)
	Size of irrep 3 of tijab amplitudes:       0.001 (MW) /      0.010 (MB)
	Size of irrep 4 of tijab amplitudes:       0.001 (MW) /      0.004 (MB)
	Size of irrep 5 of tijab amplitudes:       0.002 (MW) /      0.019 (MB)
	Size of irrep 6 of tijab amplitudes:       0.001 (MW) /      0.010 (MB)
	Size of irrep 7 of tijab amplitudes:       0.001 (MW) /      0.010 (MB)
	Total:                                     0.011 (MW) /      0.088 (MB)

	Nuclear Rep. energy          =     28.57556937618002
	SCF energy                   =  -1053.60196009730043
	One-electron energy          =    -82.54806951913407
	Two-electron energy          =     35.16272253288716
	Reference energy             =  -1053.60194800221984

*** tstop() called on cm013.hpc.nyu.edu at Thu Nov  7 15:47:14 2024
Module time:
	user time   =       0.07 seconds =       0.00 minutes
	system time =       0.03 seconds =       0.00 minutes
	total time  =          0 seconds =       0.00 minutes
Total time:
	user time   =     996.91 seconds =      16.62 minutes
	system time =      99.36 seconds =       1.66 minutes
	total time  =       2388 seconds =      39.80 minutes
            **************************
            *                        *
            *        CCENERGY        *
            *                        *
            **************************

    Nuclear Rep. energy (wfn)     =   28.575569376180024
    SCF energy          (wfn)     = -1053.601960097300434
    Reference energy    (file100) = -1053.601948002219842

    Input parameters:
    -----------------
    Wave function   =     CCSD_T
    Reference wfn   =     RHF
    Brueckner       =     No
    Memory (Mbytes) =     500.0
    Maxiter         =     50
    R_Convergence   =     1.0e-07
    E_Convergence   =     1.0e-06
    Restart         =     Yes
    DIIS            =     Yes
    AO Basis        =     NONE
    ABCD            =     NEW
    Cache Level     =     2
    Cache Type      =     LOW
    Print Level     =     1
    Num. of threads =     1
    # Amps to Print =     10
    Print MP2 Amps? =     No
    Analyze T2 Amps =     No
    Print Pair Ener =     No
    Local CC        =     No
    SCS-MP2         =     False
    SCSN-MP2        =     False
    SCS-CCSD        =     False

MP2 correlation energy -0.3087011119876124
                Solving CC Amplitude Equations
                ------------------------------
  Iter             Energy              RMS        T1Diag      D1Diag    New D1Diag    D2Diag
  ----     ---------------------    ---------   ----------  ----------  ----------   --------
     0        -0.308701111987612    0.000e+00    0.000000    0.000000    0.000000    0.104879
     1        -0.328690707190165    3.201e-02    0.002856    0.004660    0.004660    0.113989
     2        -0.332197660219968    8.156e-03    0.003410    0.005469    0.005469    0.116597
     3        -0.332416518569012    1.534e-03    0.003674    0.005923    0.005923    0.116921
     4        -0.332419763778279    3.142e-04    0.003714    0.005986    0.005986    0.116972
     5        -0.332413960861518    6.205e-05    0.003722    0.006000    0.006000    0.116968
     6        -0.332414038042610    1.064e-05    0.003723    0.006002    0.006002    0.116967
     7        -0.332414184271235    2.679e-06    0.003723    0.006002    0.006002    0.116967
     8        -0.332414190887898    6.701e-07    0.003723    0.006002    0.006002    0.116967
     9        -0.332414187445566    1.899e-07    0.003723    0.006002    0.006002    0.116967
    10        -0.332414188810314    5.551e-08    0.003723    0.006002    0.006002    0.116967

    Iterations converged.


    Largest TIA Amplitudes:
              6  28         0.0053489412
              7  32         0.0053489412
              2  10         0.0053275496
              3  14         0.0053275496
              1   0         0.0049839752
              5  21         0.0041794924
              5  20        -0.0031103450
              4  25         0.0025220756
              0   5         0.0025175648
              1   1        -0.0024084228

    Largest TIjAb Amplitudes:
      5   5  23  23        -0.0185267152
      1   1   3   3        -0.0184358480
      1   5   3  23         0.0184303146
      5   1  23   3         0.0184303146
      1   1  23  23        -0.0179665005
      5   5   3   3        -0.0179144029
      1   5  23   3         0.0178892149
      5   1   3  23         0.0178892149
      6   6  29  29        -0.0142216836
      7   7  33  33        -0.0142216836

    SCF energy       (wfn)                    = -1053.601960097300434
    Reference energy (file100)                = -1053.601948002219842

    Opposite-spin MP2 correlation energy      =   -0.224014192386666
    Same-spin MP2 correlation energy          =   -0.084686919600947
    Singles MP2 correlation energy            =   -0.000000000000000
    MP2 correlation energy                    =   -0.308701111987612
      * MP2 total energy                      = -1053.910649114207445

    Opposite-spin CCSD correlation energy     =   -0.250558944006501
    Same-spin CCSD correlation energy         =   -0.081855244803813
    Singles CCSD correlation energy           =    0.000000000000000
    CCSD correlation energy                   =   -0.332414188810314
      * CCSD total energy                     = -1053.934362191030232

            **************************
            *                        *
            *        CCTRIPLES       *
            *                        *
            **************************


    Wave function   =    CCSD_T
    Reference wfn   =      RHF

    Nuclear Rep. energy (wfn)                =   28.575569376180024
    SCF energy          (wfn)                = -1053.601960097300434
    Reference energy    (file100)            = -1053.601948002219842
    CCSD energy         (file100)            =   -0.332414188810314
    Total CCSD energy   (file100)            = -1053.934362191030232

    Number of ijk index combinations:              120
    Memory available in words               :        62500000
    Approx. words needed per explicit thread:            2048
    Number of threads for explicit ijk threading:    1

    MKL num_threads set to 1 for explicit threading.

    (T) energy                                =   -0.005055223290106
      * CCSD(T) total energy                  = -1053.939417414320360


    Psi4 stopped on: Thursday, 07 November 2024 03:47PM
    Psi4 wall time for execution: 0:00:01.80


  //>>>>>>>>>>>>>>>>>>>>>>>>>>>>>>>>>>>//
  //          ManyBody Results         //
  //<<<<<<<<<<<<<<<<<<<<<<<<<<<<<<<<<<<//


   ==> N-Body: Counterpoise Corrected (CP) energies <==

        n-Body     Total Energy            Interaction Energy                          N-body Contribution to Interaction Energy
                   [Eh]                    [Eh]                  [kcal/mol]            [Eh]                  [kcal/mol]
             1  N/A                         0.000000000000        0.000000000000        0.000000000000        0.000000000000
  FULL/RTN   2  N/A                        -0.000030090689       -0.018882192452       -0.000030090689       -0.018882192452

