
Host: cm013.hpc.nyu.edu

Timers On : Thu Nov  7 15:11:39 2024
Timers Off: Thu Nov  7 15:11:39 2024

Wall Time:        0.40 seconds

                                                       Time (seconds)
Module                                       User      System        Wall        Calls

--------------------------------------------------------------------------------------

**************************************************************************************
