ITEM: TIMESTEP
0
ITEM: NUMBER OF ATOMS
480
ITEM: BOX BOUNDS pp pp pp
0.0000000000000000e+00 7.3680629972807701e+00
0.0000000000000000e+00 7.3680629972807701e+00
0.0000000000000000e+00 7.3680629972807701e+00
ITEM: ATOMS id type xs ys zs
8 1 0.194383 0.125737 0.0672606
23 1 0.0882166 0.196251 0.0737731
52 1 0.158731 0.0894401 0.20142
71 1 0.0466437 0.192509 0.209959
75 1 0.187542 0.235524 0.171418
3 1 0.066468 0.057474 0.0919618
12 1 0.391838 0.0924403 0.102414
27 1 0.293802 0.212874 0.093119
56 1 0.296979 0.12366 0.189866
79 1 0.389511 0.220315 0.202304
31 1 0.487065 0.227695 0.103388
60 1 0.488116 0.12094 0.194683
7 1 0.277996 0.0188763 0.110398
16 1 0.58377 0.119208 0.0838853
35 1 0.718901 0.214352 0.100794
64 1 0.705474 0.0973084 0.187884
83 1 0.605718 0.21486 0.207329
63 1 0.594627 0.0223272 0.197274
14 1 0.726143 0.103681 0.015854
4 1 0.957063 0.134966 0.0415132
20 1 0.815868 0.0848389 0.113179
39 1 0.945968 0.247354 0.129739
68 1 0.940185 0.104778 0.175765
87 1 0.829022 0.207152 0.184326
37 1 0.835025 0.217453 0.030571
43 1 0.170582 0.451474 0.0309311
28 1 0.218261 0.323661 0.0664609
42 1 0.0663716 0.484891 0.135415
72 1 0.0750894 0.329148 0.174129
93 1 0.184427 0.418192 0.169807
22 1 0.0728839 0.335469 0.0390516
41 1 0.00489192 0.461833 0.0160478
32 1 0.387056 0.322378 0.0867361
44 1 0.310476 0.429457 0.0795781
76 1 0.290786 0.319817 0.196395
95 1 0.395112 0.424255 0.192514
80 1 0.498646 0.326797 0.207296
36 1 0.632732 0.316466 0.10586
46 1 0.510972 0.424682 0.0952955
48 1 0.716957 0.431601 0.106738
84 1 0.726963 0.327613 0.200794
97 1 0.590122 0.418585 0.206705
24 1 0.950734 0.387659 0.118255
40 1 0.820376 0.342786 0.100907
99 1 0.817459 0.434337 0.218675
309 1 0.957926 0.488247 0.219885
88 1 0.943178 0.352101 0.247131
394 2 0.22678 0.028973 0.442254
113 1 0.230461 0.159451 0.437331
102 1 0.113767 0.0697432 0.415151
54 1 0.0462175 0.0703523 0.283907
73 1 0.136146 0.17176 0.309887
111 1 0.0340392 0.190315 0.406266
58 1 0.240034 0.0671965 0.3283
77 1 0.281018 0.216523 0.300217
115 1 0.376659 0.205639 0.405155
62 1 0.394743 0.101487 0.305324
104 1 0.334854 0.0496601 0.435781
106 1 0.490919 0.110409 0.416181
81 1 0.488132 0.209552 0.303877
107 1 0.612661 0.0188334 0.407553
400 2 0.745986 0.0184694 0.462678
65 1 0.720826 0.0179381 0.306312
61 1 0.502778 0.00372676 0.302287
117 1 0.581197 0.208132 0.415193
108 1 0.694473 0.120653 0.423241
85 1 0.725793 0.194272 0.284945
66 1 0.612799 0.113985 0.306161
144 1 0.929332 0.183529 0.493945
89 1 0.92369 0.207478 0.279591
70 1 0.832822 0.0921335 0.269458
110 1 0.937958 0.0842112 0.371789
119 1 0.836294 0.174398 0.388154
135 1 0.859347 0.0624002 0.49004
91 1 0.0648128 0.428169 0.272822
78 1 0.181369 0.31911 0.286794
112 1 0.141214 0.287692 0.419181
121 1 0.0359976 0.393365 0.424953
74 1 0.0466583 0.285634 0.311448
92 1 0.16252 0.418442 0.37945
82 1 0.394292 0.332021 0.300121
94 1 0.283697 0.419129 0.289615
114 1 0.283966 0.327606 0.396236
123 1 0.391219 0.427084 0.418207
116 1 0.48294 0.304228 0.405177
141 1 0.374632 0.302262 0.49812
96 1 0.520751 0.420086 0.323909
98 1 0.702371 0.421742 0.307386
124 1 0.606598 0.389547 0.421872
118 1 0.72589 0.258307 0.406531
86 1 0.618142 0.301001 0.307369
90 1 0.813073 0.307242 0.309845
120 1 0.931752 0.293133 0.398373
100 1 0.927312 0.443933 0.345971
125 1 0.793383 0.403341 0.410835
150 1 0.91173 0.39274 0.497882
129 1 0.206124 0.065631 0.550747
152 1 0.0698811 0.0596518 0.66111
158 1 0.198078 0.059884 0.72525
173 1 0.0777112 0.181666 0.739999
175 1 0.201927 0.179955 0.644567
136 1 0.115252 0.178404 0.531787
171 1 0.000482242 0.190356 0.613736
127 1 0.00965817 0.0654277 0.517939
131 1 0.444849 0.0351253 0.551293
138 1 0.3327 0.152702 0.535251
156 1 0.318348 0.0411714 0.646733
177 1 0.318911 0.171828 0.735689
179 1 0.443153 0.148958 0.647249
140 1 0.472543 0.200214 0.520087
160 1 0.496966 0.0137152 0.675671
142 1 0.738111 0.105638 0.553368
164 1 0.640068 0.0620352 0.649535
183 1 0.56551 0.199662 0.637975
185 1 0.722366 0.1947 0.685745
133 1 0.575155 0.081803 0.529201
184 1 0.677985 0.237103 0.550824
210 1 0.534705 0.120973 0.7477
202 1 0.933409 0.12603 0.708217
154 1 0.933109 0.0144335 0.610489
187 1 0.841192 0.171091 0.595911
218 1 0.805425 0.0643564 0.679548
146 1 0.152037 0.382286 0.531937
172 1 0.106753 0.281052 0.628459
178 1 0.220699 0.289936 0.725972
191 1 0.0222868 0.394218 0.596283
193 1 0.13492 0.425766 0.683309
174 1 0.00373921 0.31764 0.71496
139 1 0.240663 0.275878 0.544897
137 1 0.025575 0.284132 0.506547
401 2 0.101435 0.486904 0.582795
122 1 0.292009 0.431258 0.50748
147 1 0.271107 0.382727 0.645253
176 1 0.354463 0.263453 0.632544
196 1 0.453979 0.4575 0.654393
148 1 0.467554 0.407757 0.529978
403 2 0.372276 0.381735 0.58862
180 1 0.473294 0.314795 0.641428
404 2 0.329348 0.490171 0.625929
182 1 0.36585 0.367629 0.738543
195 1 0.291251 0.494372 0.730972
149 1 0.702822 0.365107 0.525112
186 1 0.640307 0.311745 0.663895
197 1 0.593843 0.458218 0.573509
407 2 0.700036 0.413793 0.652246
408 2 0.561364 0.400046 0.678553
143 1 0.565277 0.31227 0.533337
387 2 0.703454 0.490602 0.558045
189 1 0.868677 0.257924 0.747938
409 2 0.923027 0.478877 0.587537
188 1 0.912954 0.304227 0.612696
190 1 0.783954 0.33364 0.650711
199 1 0.810086 0.450295 0.56598
200 1 0.891181 0.423976 0.697656
145 1 0.816085 0.283556 0.515051
410 2 0.781633 0.419255 0.742508
402 2 0.99861 0.465331 0.698443
424 2 0.81883 0.499791 0.667735
2 1 0.0635415 0.103231 0.961589
208 1 0.103522 0.0664496 0.828032
225 1 0.186745 0.200844 0.830784
25 1 0.196088 0.0712838 0.942219
223 1 0.0853171 0.237321 0.927054
227 1 0.235032 0.221502 0.96828
181 1 0.431619 0.248701 0.755755
162 1 0.388982 0.0436943 0.759473
206 1 0.279331 0.0881249 0.838111
229 1 0.40523 0.148837 0.854884
6 1 0.327716 0.107895 0.980105
212 1 0.47226 0.0325718 0.885409
29 1 0.371148 0.237058 0.953129
10 1 0.474452 0.129774 0.997672
233 1 0.637506 0.217816 0.784832
33 1 0.619408 0.221089 0.986188
13 1 0.603104 0.0146397 0.970963
215 1 0.73209 0.00737363 0.877889
214 1 0.693853 0.0953878 0.779805
216 1 0.590557 0.120159 0.875824
231 1 0.517905 0.232525 0.873638
235 1 0.719595 0.192189 0.899331
201 1 0.968556 0.00919163 0.760103
219 1 0.866713 0.0100444 0.849579
204 1 0.971729 0.109499 0.862702
220 1 0.833644 0.145463 0.809108
18 1 0.84424 0.111988 0.942794
1 1 0.951437 0.0162486 0.972635
454 2 0.214636 0.485557 0.917704
241 1 0.030509 0.427953 0.797414
224 1 0.0230738 0.363846 0.911574
243 1 0.193368 0.434251 0.814952
228 1 0.16623 0.347816 0.929975
222 1 0.108286 0.316418 0.802921
26 1 0.303747 0.369929 0.949026
421 2 0.45488 0.431726 0.802928
245 1 0.354918 0.465217 0.847615
232 1 0.421816 0.338179 0.877141
226 1 0.309237 0.271922 0.826759
45 1 0.429513 0.430542 0.991509
237 1 0.745189 0.314029 0.791799
30 1 0.523762 0.331819 0.990911
246 1 0.524533 0.435293 0.897006
230 1 0.536781 0.352019 0.785809
236 1 0.634191 0.342433 0.883625
234 1 0.653573 0.426421 0.758458
34 1 0.731142 0.312077 0.984842
47 1 0.637696 0.427519 0.993646
221 1 0.971097 0.259515 0.840777
239 1 0.83041 0.271298 0.902138
461 2 0.991243 0.473784 0.893171
38 1 0.878111 0.398495 0.970958
238 1 0.897028 0.379601 0.83406
240 1 0.759205 0.42803 0.869805
21 1 0.957544 0.264164 0.993157
459 2 0.903394 0.496146 0.793006
254 1 0.167853 0.563489 0.135753
263 1 0.186514 0.697441 0.0805782
312 1 0.168448 0.677675 0.236228
299 1 0.063898 0.722696 0.162281
311 1 0.0554246 0.592065 0.23704
463 2 0.0611128 0.692585 0.042347
456 2 0.248224 0.530685 0.0669925
251 1 0.082012 0.576344 0.0254606
267 1 0.327729 0.625978 0.0897787
256 1 0.416436 0.529139 0.0860186
316 1 0.304648 0.745364 0.162755
319 1 0.410006 0.635311 0.223426
303 1 0.293289 0.533269 0.184692
339 1 0.425225 0.730747 0.0517714
320 1 0.510473 0.638105 0.119292
305 1 0.509909 0.536712 0.213729
258 1 0.612817 0.547881 0.0999358
307 1 0.700847 0.528258 0.209215
323 1 0.609996 0.637688 0.225541
275 1 0.731343 0.690247 0.191003
276 1 0.626589 0.698499 0.0461193
471 2 0.526177 0.669406 0.00220928
475 2 0.753277 0.704728 0.0428034
260 1 0.763313 0.592138 0.0976842
252 1 0.972352 0.621221 0.112338
279 1 0.847302 0.717558 0.107796
327 1 0.857173 0.600714 0.200853
349 1 0.945938 0.725538 0.227024
259 1 0.880218 0.615205 0.00974229
50 1 0.8789 0.505817 0.0934942
283 1 0.106408 0.815153 0.0628284
288 1 0.242416 0.823138 0.0440269
332 1 0.169574 0.934539 0.106456
335 1 0.189327 0.818074 0.190763
331 1 0.0494116 0.832993 0.247885
51 1 0.0314862 0.964956 0.185395
55 1 0.246018 0.937595 0.237644
284 1 0.00165813 0.910032 0.0468294
322 1 0.427671 0.786022 0.189138
292 1 0.453638 0.871596 0.0724835
336 1 0.331595 0.889969 0.140459
59 1 0.416639 0.98719 0.188473
9 1 0.386992 0.97784 0.0169394
343 1 0.625285 0.773435 0.172701
340 1 0.530691 0.899008 0.183854
324 1 0.720871 0.812573 0.0682341
296 1 0.588053 0.881573 0.0549659
344 1 0.674586 0.901856 0.211153
15 1 0.686378 0.975397 0.0791752
11 1 0.509522 0.999847 0.0786133
347 1 0.802526 0.835114 0.171762
328 1 0.973774 0.767077 0.0647475
300 1 0.871787 0.856455 0.0538946
348 1 0.936115 0.855863 0.17356
67 1 0.790385 0.972648 0.181381
19 1 0.912957 0.987669 0.108741
301 1 0.180615 0.521304 0.278111
313 1 0.158202 0.632542 0.36744
314 1 0.0562677 0.714759 0.3395
357 1 0.116835 0.737785 0.458615
302 1 0.0631739 0.517769 0.372289
412 2 0.0742357 0.600064 0.455647
351 1 0.16385 0.514808 0.469677
315 1 0.285914 0.619291 0.291745
304 1 0.28305 0.533749 0.403307
306 1 0.408679 0.519552 0.310768
317 1 0.388871 0.618573 0.418407
353 1 0.491547 0.511744 0.433184
337 1 0.393404 0.721266 0.334264
318 1 0.271856 0.705526 0.405309
395 2 0.491014 0.694875 0.427499
360 1 0.388564 0.744663 0.485883
321 1 0.500053 0.619597 0.333981
308 1 0.608569 0.532957 0.316489
325 1 0.711539 0.620372 0.353598
326 1 0.595333 0.621463 0.441744
354 1 0.741761 0.522046 0.457993
385 2 0.60914 0.503722 0.475203
363 1 0.703192 0.678243 0.499228
356 1 0.96637 0.630292 0.45814
355 1 0.88297 0.51996 0.449576
365 1 0.8271 0.646262 0.439636
310 1 0.805374 0.523404 0.313242
329 1 0.9383 0.60662 0.319606
399 2 0.921346 0.713159 0.383327
330 1 0.820281 0.710107 0.306052
101 1 0.00818047 0.965489 0.379784
53 1 0.132238 0.960143 0.297946
367 1 0.0985978 0.86605 0.397674
333 1 0.178974 0.782256 0.338647
103 1 0.232474 0.932829 0.383072
392 2 0.0494354 0.971108 0.486941
368 1 0.236964 0.823317 0.464756
338 1 0.31006 0.825312 0.290021
57 1 0.353953 0.964654 0.32012
369 1 0.365844 0.873302 0.426275
342 1 0.447642 0.865342 0.292841
105 1 0.47306 0.959536 0.431746
371 1 0.493694 0.818545 0.421614
398 2 0.599819 0.902851 0.457625
345 1 0.697834 0.777266 0.30612
346 1 0.591355 0.8932 0.338519
341 1 0.535933 0.752628 0.281934
373 1 0.711013 0.889378 0.407682
372 1 0.605187 0.75111 0.40481
397 2 0.722169 0.776719 0.442904
334 1 0.937969 0.842467 0.338525
134 1 0.932134 0.91065 0.48135
350 1 0.800346 0.872796 0.29841
69 1 0.921018 0.981072 0.266187
109 1 0.826421 0.984604 0.387696
375 1 0.842569 0.792491 0.439952
366 1 0.989874 0.771878 0.465442
381 1 0.1064 0.618789 0.562785
413 2 0.035499 0.691867 0.527727
415 2 0.181602 0.540571 0.710879
192 1 0.0778318 0.550155 0.681713
414 2 0.0926074 0.668149 0.672648
377 1 0.218229 0.513505 0.604609
416 2 0.214522 0.631393 0.611012
358 1 0.246132 0.617566 0.500749
429 2 0.00959548 0.623171 0.745671
468 2 0.202637 0.658435 0.728306
376 1 0.0143014 0.505437 0.513256
378 1 0.474853 0.589611 0.659299
383 1 0.31591 0.629828 0.662336
419 2 0.407142 0.671158 0.70362
362 1 0.472651 0.657113 0.5355
352 1 0.393403 0.52093 0.533588
386 2 0.349798 0.638409 0.548332
406 2 0.398621 0.530841 0.730518
359 1 0.265386 0.742676 0.574018
439 2 0.384864 0.74349 0.61356
405 2 0.505058 0.548127 0.555987
379 1 0.605944 0.606658 0.585723
420 2 0.526378 0.682274 0.630055
423 2 0.627734 0.626485 0.696693
473 2 0.57742 0.516289 0.668279
445 2 0.719079 0.62331 0.616439
198 1 0.704303 0.526901 0.667344
293 1 0.675805 0.729278 0.703686
388 2 0.587834 0.705027 0.518111
411 2 0.982092 0.594715 0.584925
427 2 0.753383 0.643755 0.746041
389 2 0.898636 0.675976 0.545774
390 2 0.853479 0.647152 0.654267
382 1 0.96303 0.701106 0.639566
380 1 0.927148 0.562254 0.684478
364 1 0.819127 0.588845 0.562025
374 1 0.830414 0.747815 0.613357
126 1 0.156051 0.947522 0.503504
384 1 0.104179 0.758823 0.607281
418 2 0.118066 0.842974 0.672628
432 2 0.177263 0.8389 0.567637
435 2 0.201849 0.754732 0.660508
153 1 0.0936742 0.937347 0.744411
155 1 0.206121 0.937233 0.635668
391 2 0.0570035 0.849071 0.506132
281 1 0.0274128 0.789403 0.737958
431 2 0.0113103 0.81532 0.624303
151 1 0.031701 0.926147 0.592338
128 1 0.289298 0.940457 0.530395
396 2 0.448319 0.880146 0.51016
436 2 0.273193 0.850548 0.659184
442 2 0.394192 0.842458 0.722234
157 1 0.324298 0.76063 0.706632
159 1 0.385051 0.904436 0.623946
393 2 0.33588 0.83059 0.537333
361 1 0.480468 0.760347 0.718542
209 1 0.314125 0.92128 0.739163
370 1 0.48812 0.792781 0.572857
440 2 0.494688 0.883568 0.658666
447 2 0.71734 0.756806 0.591483
132 1 0.670273 0.971726 0.529949
443 2 0.590114 0.802471 0.640807
446 2 0.610425 0.944057 0.672861
163 1 0.626571 0.816364 0.522128
166 1 0.681874 0.870108 0.648093
130 1 0.543163 0.931641 0.56519
213 1 0.581805 0.854104 0.74718
444 2 0.710868 0.833888 0.748953
165 1 0.802071 0.753167 0.746767
170 1 0.752304 0.944705 0.736785
428 2 0.907269 0.792348 0.695911
426 2 0.859309 0.969486 0.695744
167 1 0.764702 0.857676 0.526052
169 1 0.905545 0.876288 0.631276
448 2 0.921349 0.791206 0.556453
449 2 0.986828 0.901547 0.708435
450 2 0.790471 0.85206 0.657027
168 1 0.807238 0.967242 0.582354
242 1 0.100454 0.501593 0.904145
451 2 0.106402 0.528273 0.794956
265 1 0.113704 0.653875 0.801115
268 1 0.132108 0.730023 0.95638
467 2 0.210853 0.698685 0.872444
464 2 0.104672 0.616056 0.921734
194 1 0.226649 0.571738 0.828638
253 1 0.20479 0.592514 0.967842
262 1 0.0046782 0.578624 0.843822
465 2 0.0572849 0.733674 0.851658
287 1 0.293036 0.712277 0.980659
244 1 0.319591 0.516549 0.978188
417 2 0.320764 0.609625 0.774684
271 1 0.421926 0.62797 0.953375
269 1 0.416494 0.59192 0.823302
453 2 0.303009 0.61314 0.920784
455 2 0.427024 0.522884 0.920499
266 1 0.312232 0.703037 0.835266
466 2 0.430374 0.703564 0.807674
472 2 0.420164 0.745743 0.927726
469 2 0.514431 0.625303 0.757105
247 1 0.531621 0.505377 0.765621
270 1 0.526694 0.689953 0.871112
257 1 0.688687 0.605161 0.981866
458 2 0.524797 0.567206 0.862067
425 2 0.72246 0.735383 0.82169
457 2 0.674646 0.547038 0.778627
474 2 0.629754 0.709996 0.922573
470 2 0.582346 0.7441 0.767635
273 1 0.651637 0.643929 0.83377
274 1 0.731877 0.744563 0.93923
248 1 0.628312 0.513723 0.874592
255 1 0.530054 0.555352 0.985331
250 1 0.885052 0.513309 0.904165
460 2 0.755626 0.541742 0.890158
280 1 0.866774 0.745313 0.965356
452 2 0.991778 0.567051 0.967153
479 2 0.91341 0.631597 0.894319
277 1 0.80294 0.65121 0.866327
478 2 0.873736 0.606627 0.78944
278 1 0.942305 0.709199 0.808577
261 1 0.990504 0.689771 0.954181
249 1 0.79408 0.5279 0.778991
49 1 0.76423 0.503093 0.992406
438 2 0.206841 0.935054 0.753946
434 2 0.0978121 0.844246 0.826068
462 2 0.146436 0.863119 0.966997
264 1 0.0318376 0.825243 0.937056
282 1 0.105129 0.971293 0.983453
205 1 0.172993 0.931738 0.862539
285 1 0.186067 0.772755 0.772098
203 1 0.0190062 0.942532 0.868176
286 1 0.230922 0.808267 0.896016
5 1 0.247301 0.946062 0.979993
272 1 0.357214 0.834282 0.974374
161 1 0.452788 0.926782 0.776792
437 2 0.275546 0.834826 0.799143
289 1 0.383299 0.82244 0.846816
422 2 0.448211 0.904726 0.955339
207 1 0.347513 0.950621 0.891824
476 2 0.637203 0.801988 0.993734
430 2 0.646538 0.916752 0.841177
291 1 0.520152 0.795452 0.962385
441 2 0.506033 0.805041 0.84223
295 1 0.681312 0.897807 0.9524
290 1 0.548352 0.911048 0.88729
294 1 0.631058 0.803567 0.853876
211 1 0.584577 0.993868 0.780057
17 1 0.805542 0.969378 0.99855
433 2 0.972863 0.818338 0.836765
298 1 0.902938 0.882272 0.923243
480 2 0.78773 0.849929 0.967428
297 1 0.76653 0.859652 0.847963
217 1 0.889876 0.874875 0.764415
477 2 0.857152 0.778041 0.853268
ITEM: TIMESTEP
10000
ITEM: NUMBER OF ATOMS
480
ITEM: BOX BOUNDS pp pp pp
0.0000000000000000e+00 7.3680629972807701e+00
0.0000000000000000e+00 7.3680629972807701e+00
0.0000000000000000e+00 7.3680629972807701e+00
ITEM: ATOMS id type xs ys zs
348 1 0.0544302 0.147465 0.158699
79 1 0.187569 0.161611 0.192311
282 1 0.0585748 0.0322517 0.0739156
422 2 0.174418 0.0135215 0.0904084
2 1 0.136733 0.120906 0.0420347
332 1 0.132232 0.0565759 0.239178
8 1 0.252638 0.192243 0.0662471
207 1 0.396522 0.132635 0.0452269
16 1 0.279461 0.0420608 0.0101946
33 1 0.318493 0.20104 0.192495
62 1 0.270893 0.0621677 0.147633
80 1 0.481499 0.0635432 0.113097
31 1 0.460557 0.197586 0.179534
63 1 0.609292 0.179779 0.164295
67 1 0.67868 0.0596342 0.238413
255 1 0.5084 0.197351 0.0518525
64 1 0.653554 0.0577595 0.0738193
480 2 0.683006 0.164749 0.0738538
87 1 0.74608 0.168981 0.185579
83 1 0.548342 0.0618663 0.243705
38 1 0.887889 0.245853 0.0446926
52 1 0.979683 0.145516 0.0472173
3 1 0.821626 0.129735 0.060974
68 1 0.886501 0.189961 0.166025
108 1 0.933912 0.0607772 0.142881
286 1 0.916705 0.00891157 0.0241498
20 1 0.751756 0.247721 0.0129704
19 1 0.787169 0.026486 0.144905
56 1 0.106681 0.252028 0.0936318
23 1 0.0773898 0.400424 0.0991462
76 1 0.183633 0.346495 0.0378359
51 1 0.129972 0.260735 0.244625
73 1 0.17216 0.403522 0.194443
22 1 0.134678 0.49802 0.0142905
78 1 0.237841 0.486644 0.102088
77 1 0.311576 0.435106 0.220756
75 1 0.250526 0.305833 0.175639
12 1 0.376891 0.254138 0.0778466
95 1 0.361976 0.387717 0.107309
82 1 0.406171 0.318562 0.238317
44 1 0.474001 0.459152 0.203753
257 1 0.449051 0.349949 0.0033904
458 2 0.632166 0.404923 0.0731115
32 1 0.506626 0.461361 0.0546059
220 1 0.649089 0.291046 0.10571
35 1 0.512099 0.330012 0.129506
256 1 0.615675 0.439612 0.188982
114 1 0.604649 0.306309 0.224774
36 1 0.723867 0.458547 0.118753
123 1 0.740268 0.382902 0.241383
235 1 0.716766 0.375117 0.00742596
72 1 0.983988 0.285225 0.126521
39 1 0.909687 0.32269 0.23952
228 1 0.985308 0.466852 0.0358967
40 1 0.885813 0.382304 0.0892825
97 1 0.800484 0.298601 0.138998
50 1 0.956458 0.427895 0.176309
479 2 0.840191 0.397174 0.185916
449 2 0.15782 0.233566 0.435873
101 1 0.00422892 0.0668616 0.272203
111 1 0.214317 0.190034 0.33814
102 1 0.10065 0.103992 0.387292
334 1 0.246497 0.0630726 0.416391
393 2 0.134137 0.000953395 0.471625
137 1 0.0687306 0.24919 0.372631
448 2 0.165502 0.0268563 0.34329
140 1 0.486084 0.0506295 0.483519
403 2 0.331439 0.155274 0.417034
55 1 0.292078 0.0851323 0.290858
81 1 0.390512 0.190931 0.307035
106 1 0.397265 0.0549193 0.376881
139 1 0.462759 0.189441 0.427823
333 1 0.357147 0.00934929 0.496017
142 1 0.678113 0.0669506 0.477526
85 1 0.567558 0.0913347 0.374022
86 1 0.535714 0.227309 0.316156
116 1 0.637492 0.223055 0.440446
70 1 0.669494 0.191873 0.288051
473 2 0.733442 0.210347 0.380591
88 1 0.8645 0.111841 0.270453
84 1 0.806079 0.248795 0.27692
125 1 0.966734 0.114279 0.417144
343 1 0.757248 0.0818194 0.346196
90 1 0.848339 0.175088 0.401883
89 1 0.9786 0.199209 0.290022
119 1 0.905828 0.0088316 0.363685
199 1 0.756135 0.207604 0.499497
424 2 0.966275 0.202331 0.495461
100 1 0.107992 0.476722 0.312473
365 1 0.0402556 0.431805 0.416301
401 2 0.20721 0.420963 0.292652
428 2 0.0747001 0.333239 0.472484
310 1 0.0255736 0.360469 0.266401
92 1 0.161084 0.356626 0.36982
178 1 0.159921 0.444683 0.474213
222 1 0.189867 0.315798 0.498963
180 1 0.435257 0.426497 0.467142
404 2 0.25911 0.372407 0.427042
115 1 0.287477 0.254948 0.426877
112 1 0.287089 0.34378 0.313976
146 1 0.411798 0.302632 0.389454
121 1 0.38354 0.439131 0.333291
191 1 0.251729 0.487486 0.375474
415 2 0.415378 0.313215 0.498477
354 1 0.673861 0.369917 0.495241
46 1 0.508868 0.363894 0.326357
353 1 0.724393 0.468071 0.344638
124 1 0.539441 0.310264 0.475318
148 1 0.563848 0.457715 0.4253
143 1 0.650846 0.354234 0.34149
99 1 0.964231 0.475939 0.312867
307 1 0.873115 0.419056 0.45453
71 1 0.945117 0.321313 0.378316
24 1 0.796931 0.29341 0.405982
260 1 0.838146 0.401214 0.319252
136 1 0.0782695 0.169002 0.651806
134 1 0.0598995 0.0754606 0.517685
206 1 0.176426 0.123768 0.744114
243 1 0.243241 0.228955 0.667136
171 1 0.00994901 0.0378101 0.649375
129 1 0.226003 0.0432001 0.547686
418 2 0.121221 0.0546331 0.653673
221 1 0.0223088 0.245148 0.746471
54 1 0.0778969 0.22383 0.514953
58 1 0.202402 0.167171 0.522775
312 1 0.284322 0.102043 0.658089
130 1 0.443521 0.090038 0.622114
176 1 0.381715 0.214491 0.690093
181 1 0.4719 0.237646 0.568367
138 1 0.331636 0.141392 0.530999
141 1 0.550101 0.191531 0.693852
298 1 0.670236 0.13555 0.631239
184 1 0.566116 0.142076 0.541714
164 1 0.680324 0.226827 0.714427
443 2 0.66496 0.0428453 0.709953
213 1 0.534537 0.061994 0.719852
107 1 0.597351 0.0290564 0.590097
407 2 0.954621 0.136878 0.683958
110 1 0.921483 0.124071 0.55779
145 1 0.832317 0.204705 0.632108
149 1 0.80924 0.0525357 0.516592
144 1 0.968827 0.240638 0.612734
202 1 0.773087 0.103649 0.717888
412 2 0.158561 0.461215 0.59788
392 2 0.0911704 0.28402 0.620952
193 1 0.0293596 0.368439 0.707544
150 1 0.0796609 0.384333 0.573226
242 1 0.20692 0.357675 0.633995
26 1 0.134717 0.464818 0.706827
378 1 0.38476 0.481517 0.6051
175 1 0.314622 0.293533 0.549284
182 1 0.333708 0.375584 0.734087
147 1 0.284906 0.427248 0.524709
231 1 0.405293 0.347362 0.625278
246 1 0.451201 0.442646 0.720544
453 2 0.493722 0.423998 0.567378
455 2 0.470283 0.299396 0.713998
172 1 0.264107 0.47518 0.661663
379 1 0.602831 0.462475 0.558125
133 1 0.647145 0.253432 0.563825
186 1 0.675042 0.378832 0.707048
408 2 0.691224 0.486349 0.670934
233 1 0.539348 0.343089 0.634587
352 1 0.568432 0.475882 0.68988
188 1 0.869089 0.271899 0.520259
120 1 0.971509 0.346593 0.518001
200 1 0.792824 0.45172 0.683817
187 1 0.752566 0.329644 0.599612
356 1 0.902638 0.336659 0.661917
355 1 0.766024 0.466627 0.545364
390 2 0.995532 0.475667 0.539421
402 2 0.913417 0.454883 0.687836
190 1 0.788705 0.318292 0.747828
382 1 0.894608 0.493264 0.584764
25 1 0.0296019 0.0549962 0.945607
27 1 0.180859 0.228259 0.942056
158 1 0.0868658 0.161271 0.876106
177 1 0.116617 0.0347218 0.833934
227 1 0.0373428 0.241094 0.973479
10 1 0.234238 0.119041 0.917746
189 1 0.022654 0.105936 0.764521
245 1 0.306924 0.170677 0.797608
210 1 0.447647 0.190242 0.81048
438 2 0.255151 0.0651878 0.797443
179 1 0.398189 0.0662642 0.753536
216 1 0.382811 0.108761 0.900914
236 1 0.32617 0.223888 0.951646
214 1 0.487203 0.236963 0.929306
211 1 0.528092 0.082959 0.850791
37 1 0.615063 0.196939 0.951976
160 1 0.656806 0.119127 0.806067
446 2 0.628833 0.0768685 0.915615
18 1 0.720081 0.246462 0.848932
218 1 0.736338 0.120828 0.95205
237 1 0.581819 0.244078 0.812341
15 1 0.518284 0.07232 0.986665
1 1 0.87387 0.0723788 0.917183
154 1 0.90094 0.0466394 0.760382
238 1 0.870131 0.182638 0.775873
406 2 0.76295 0.146017 0.839866
4 1 0.834182 0.228958 0.905859
223 1 0.950317 0.169906 0.880357
204 1 0.768651 0.0253112 0.838034
467 2 0.0774084 0.364705 0.997705
241 1 0.151215 0.280273 0.79101
174 1 0.0293603 0.339755 0.856003
173 1 0.156437 0.355642 0.912345
28 1 0.063464 0.452921 0.912126
454 2 0.115694 0.415375 0.814315
244 1 0.2423 0.424676 0.814574
262 1 0.0253755 0.494826 0.779285
45 1 0.247544 0.467554 0.957438
436 2 0.356989 0.278665 0.791013
226 1 0.262951 0.292353 0.854188
254 1 0.373966 0.434463 0.881824
14 1 0.448419 0.331001 0.836022
29 1 0.323837 0.347892 0.988365
414 2 0.352423 0.473285 0.765013
269 1 0.510663 0.425775 0.903467
234 1 0.721747 0.494156 0.898983
232 1 0.594076 0.491208 0.829676
183 1 0.561697 0.373583 0.787983
240 1 0.674549 0.373327 0.883671
409 2 0.706187 0.449953 0.798831
270 1 0.612282 0.466746 0.968673
185 1 0.58312 0.332062 0.99705
419 2 0.565757 0.317993 0.892785
239 1 0.91827 0.398167 0.801584
48 1 0.826753 0.452654 0.992357
34 1 0.804598 0.368744 0.881032
459 2 0.921327 0.286399 0.818035
224 1 0.913306 0.343451 0.954703
41 1 0.929143 0.483761 0.909549
311 1 0.169839 0.662799 0.231718
309 1 0.178539 0.612445 0.098272
91 1 0.207766 0.538102 0.227577
410 2 0.0557876 0.563164 0.068707
327 1 0.0454687 0.643983 0.14082
268 1 0.127895 0.727605 0.0622816
74 1 0.0837711 0.516995 0.176279
303 1 0.370335 0.535197 0.151005
271 1 0.485931 0.592379 0.0730029
319 1 0.353307 0.709669 0.248601
471 2 0.29328 0.571584 0.074752
339 1 0.333972 0.669083 0.116981
472 2 0.28825 0.610501 0.200576
320 1 0.457444 0.705091 0.159851
30 1 0.38689 0.519807 0.00497442
96 1 0.475221 0.593555 0.228551
425 2 0.584679 0.660877 0.0233238
275 1 0.720815 0.701052 0.219667
276 1 0.588488 0.640128 0.15477
322 1 0.674562 0.729127 0.0975467
258 1 0.692912 0.548147 0.239068
474 2 0.544449 0.53232 0.159697
460 2 0.719501 0.509021 0.0134519
47 1 0.621457 0.548003 0.0727981
261 1 0.959869 0.722846 0.0134713
308 1 0.956462 0.606463 0.219418
279 1 0.86347 0.657546 0.0896427
452 2 0.805022 0.630403 0.186955
42 1 0.755217 0.587583 0.0984439
330 1 0.844815 0.737705 0.20303
98 1 0.826299 0.535062 0.245422
21 1 0.880302 0.525173 0.130888
274 1 0.769416 0.719758 0.0107788
316 1 0.227574 0.75625 0.148651
462 2 0.12478 0.786097 0.189161
7 1 0.11578 0.886977 0.139286
13 1 0.237599 0.922216 0.0876436
105 1 0.216903 0.95345 0.246359
60 1 0.388973 0.97905 0.0514492
338 1 0.488041 0.945056 0.168982
296 1 0.354191 0.812455 0.125544
59 1 0.278245 0.77247 0.0205804
430 2 0.472837 0.819545 0.0684849
61 1 0.373528 0.997134 0.22055
440 2 0.312661 0.92233 0.170283
300 1 0.601831 0.929721 0.237085
342 1 0.544241 0.825408 0.175935
295 1 0.57222 0.800267 0.0408316
349 1 0.641788 0.894228 0.116468
340 1 0.517998 0.928789 0.0449114
444 2 0.883929 0.777538 0.0879608
252 1 0.987763 0.780534 0.141849
69 1 0.773092 0.851571 0.126084
464 2 0.980925 0.830198 0.0301509
283 1 0.970467 0.911414 0.115773
328 1 0.872938 0.878306 0.02457
456 2 0.846855 0.923944 0.156688
109 1 0.933526 0.944097 0.239288
324 1 0.766927 0.999835 0.0196853
451 2 0.155601 0.58977 0.325174
463 2 0.243047 0.748981 0.28487
302 1 0.125973 0.552495 0.421428
369 1 0.226708 0.624109 0.479557
329 1 0.00720783 0.640957 0.392752
399 2 0.0372988 0.550004 0.275382
263 1 0.144286 0.690413 0.376865
325 1 0.0339259 0.710166 0.266254
386 2 0.452742 0.636231 0.453705
122 1 0.352644 0.565457 0.440635
94 1 0.471357 0.551094 0.385237
315 1 0.276885 0.652332 0.35749
301 1 0.356199 0.568581 0.283799
304 1 0.364666 0.696165 0.475756
341 1 0.487344 0.689183 0.339367
323 1 0.688113 0.596765 0.375174
469 2 0.721127 0.514866 0.447462
337 1 0.584179 0.723005 0.255026
388 2 0.571038 0.630516 0.403731
346 1 0.640166 0.716025 0.407841
445 2 0.727375 0.638566 0.468093
128 1 0.539079 0.715524 0.48139
397 2 0.617913 0.620161 0.27376
385 2 0.738126 0.748736 0.442838
306 1 0.581061 0.5163 0.305031
405 2 0.776522 0.622065 0.307135
326 1 0.822604 0.577122 0.441942
363 1 0.95311 0.531511 0.449952
350 1 0.881201 0.637524 0.322466
387 2 0.902664 0.652195 0.444161
375 1 0.788571 0.730894 0.339054
367 1 0.0386867 0.895875 0.498454
335 1 0.147103 0.827946 0.286072
299 1 0.0693408 0.945708 0.263673
127 1 0.0388194 0.987174 0.393922
344 1 0.00288696 0.855652 0.332108
314 1 0.161439 0.913568 0.394447
169 1 0.0757976 0.788608 0.403744
331 1 0.294788 0.848942 0.253134
357 1 0.267585 0.925535 0.48894
371 1 0.346602 0.782224 0.358504
318 1 0.254854 0.767829 0.449976
321 1 0.435571 0.813109 0.260671
396 2 0.349246 0.829166 0.472475
156 1 0.430158 0.902158 0.441253
395 2 0.455892 0.766854 0.418275
368 1 0.310663 0.935158 0.356188
372 1 0.49609 0.953638 0.339497
118 1 0.653601 0.968568 0.377559
398 2 0.626594 0.822624 0.490575
347 1 0.683488 0.821106 0.258336
163 1 0.708079 0.843324 0.388317
317 1 0.543747 0.810107 0.355383
66 1 0.558954 0.902169 0.457505
117 1 0.683873 0.92881 0.49249
373 1 0.786555 0.952487 0.397895
391 2 0.952206 0.759028 0.377594
132 1 0.866422 0.753131 0.453818
167 1 0.900731 0.870195 0.419036
65 1 0.860723 0.83193 0.299014
284 1 0.767622 0.949849 0.250223
155 1 0.932996 0.978437 0.486308
351 1 0.0622987 0.653408 0.631768
381 1 0.162482 0.707683 0.703174
195 1 0.184299 0.600456 0.622046
376 1 0.0714316 0.555138 0.536831
358 1 0.0130897 0.508023 0.64715
366 1 0.127083 0.693389 0.513338
411 2 0.135614 0.58929 0.733619
421 2 0.240139 0.523762 0.533903
416 2 0.262977 0.681719 0.620261
126 1 0.381863 0.681193 0.65783
439 2 0.480966 0.530781 0.636975
196 1 0.328705 0.593865 0.582
377 1 0.491534 0.543041 0.532248
265 1 0.270474 0.610118 0.729588
417 2 0.460945 0.720928 0.734618
266 1 0.394929 0.568589 0.724323
435 2 0.280326 0.727095 0.731328
466 2 0.59705 0.556078 0.619516
230 1 0.671928 0.565095 0.743333
291 1 0.623895 0.677297 0.665189
293 1 0.669636 0.723129 0.540459
197 1 0.701705 0.574458 0.609776
194 1 0.513814 0.649734 0.614853
157 1 0.528435 0.597077 0.741962
359 1 0.613187 0.591453 0.503348
461 2 0.960341 0.602076 0.67507
427 2 0.75423 0.670056 0.656417
423 2 0.810876 0.562931 0.557943
281 1 0.922247 0.62844 0.55996
165 1 0.835194 0.719493 0.714784
364 1 0.831336 0.584969 0.680517
198 1 0.807432 0.682192 0.554661
389 2 0.899817 0.729471 0.607644
429 2 0.969524 0.720062 0.733055
151 1 0.995514 0.738914 0.507319
431 2 0.114131 0.753871 0.616645
384 1 0.1641 0.828618 0.529604
103 1 0.12089 0.969114 0.586392
413 2 0.230523 0.919945 0.600711
225 1 0.0903085 0.937005 0.732628
285 1 0.177665 0.833563 0.662939
153 1 0.000752336 0.785067 0.639296
205 1 0.214005 0.989053 0.729247
360 1 0.455325 0.818343 0.544336
313 1 0.304334 0.779651 0.576632
394 2 0.374954 0.920777 0.565263
131 1 0.424359 0.841225 0.676112
57 1 0.344089 0.989236 0.660599
400 2 0.450479 0.96067 0.676417
53 1 0.302417 0.849413 0.682758
152 1 0.747629 0.987044 0.617019
113 1 0.507037 0.932303 0.587005
420 2 0.660078 0.910356 0.596597
159 1 0.595583 0.912532 0.694366
168 1 0.722134 0.779265 0.647863
370 1 0.574546 0.812418 0.606702
362 1 0.559682 0.792373 0.74008
135 1 0.886873 0.996354 0.614749
434 2 0.776248 0.991612 0.724966
432 2 0.981576 0.945145 0.581084
201 1 0.956108 0.900239 0.703167
361 1 0.782847 0.817717 0.532048
166 1 0.913818 0.853016 0.565888
217 1 0.818202 0.8647 0.654312
447 2 0.818823 0.927738 0.512245
93 1 0.145263 0.535525 0.849417