ITEM: TIMESTEP
0
ITEM: NUMBER OF ATOMS
480
ITEM: BOX BOUNDS pp pp pp
0.0000000000000000e+00 7.3680629972807701e+00
0.0000000000000000e+00 7.3680629972807701e+00
0.0000000000000000e+00 7.3680629972807701e+00
ITEM: ATOMS id type xs ys zs
194 1 0.141637 0.139211 0.179268
326 1 0.114418 0.114463 0.0298397
377 1 0.228299 0.0312133 0.123012
329 1 0.0558928 0.237374 0.0478105
466 2 0.164735 0.218753 0.0573656
170 1 0.115391 0.0186546 0.231228
402 2 0.0722773 0.0553052 0.113515
144 1 0.0210809 0.220354 0.223865
157 1 0.0282594 0.0113507 0.0167123
109 1 0.273357 0.186828 0.119128
251 1 0.360883 0.0852323 0.145432
442 2 0.45037 0.0456075 0.031313
430 2 0.478802 0.199876 0.131451
215 1 0.476138 0.114253 0.225378
271 1 0.388475 0.219344 0.207313
262 1 0.378317 0.137737 0.0247672
287 1 0.634225 0.188514 0.0613952
368 1 0.531444 0.0971559 0.0926753
260 1 0.591181 0.216479 0.18514
61 1 0.699787 0.102934 0.150758
34 1 0.693686 0.0596491 0.00939169
249 1 0.754367 0.228782 0.185861
422 2 0.997572 0.16498 0.132166
413 2 0.813283 0.0398624 0.0630928
421 2 0.869212 0.146188 0.188938
12 1 0.797638 0.15256 0.0742914
320 1 0.929757 0.0914957 0.0702156
150 1 0.916701 0.249415 0.137297
266 1 0.977991 0.084507 0.221936
171 1 0.851366 0.0277453 0.173496
50 1 0.0150127 0.412629 0.0229815
98 1 0.172082 0.307108 0.133813
375 1 0.0283659 0.341108 0.158142
235 1 0.243665 0.444147 0.175589
350 1 0.0304208 0.495638 0.230935
277 1 0.124334 0.461808 0.100357
103 1 0.140602 0.35078 0.00185815
62 1 0.268195 0.276305 0.0057311
207 1 0.259449 0.425589 0.0414976
388 2 0.279101 0.293347 0.161654
257 1 0.404208 0.265261 0.065386
1 1 0.363644 0.37782 0.13208
469 2 0.482646 0.428316 0.0786854
404 2 0.37228 0.460131 0.217979
102 1 0.472322 0.48964 0.172798
384 1 0.496496 0.319306 0.177762
383 1 0.384364 0.499452 0.0675505
389 2 0.741382 0.251123 0.0737874
306 1 0.668485 0.326907 0.12621
101 1 0.54432 0.325571 0.0529367
303 1 0.587104 0.457459 0.102687
84 1 0.697455 0.462114 0.206766
355 1 0.735871 0.438885 0.062421
301 1 0.794658 0.373682 0.166757
433 2 0.931744 0.36532 0.100795
140 1 0.834584 0.33799 0.0474648
410 2 0.813862 0.487967 0.165519
233 1 0.924744 0.414618 0.204523
291 1 0.873233 0.467284 0.0727142
38 1 0.00972293 0.210256 0.36074
253 1 0.0244796 0.0857517 0.451928
49 1 0.110769 0.108635 0.331153
119 1 0.111128 0.188261 0.468842
9 1 0.157865 0.03864 0.469987
117 1 0.24642 0.101347 0.385259
208 1 0.23494 0.240088 0.406666
203 1 0.00328067 0.00825469 0.329568
369 1 0.258143 0.0455717 0.256321
193 1 0.343102 0.24369 0.484253
372 1 0.270166 0.179936 0.270737
398 2 0.342712 0.130684 0.48661
382 1 0.37398 0.156141 0.356732
443 2 0.373234 0.0650869 0.284734
381 1 0.404252 0.0472245 0.457562
133 1 0.470122 0.174616 0.469223
31 1 0.521106 0.213898 0.316574
22 1 0.633484 0.0458464 0.282301
121 1 0.672152 0.16793 0.300367
225 1 0.510391 0.0746697 0.353076
165 1 0.624114 0.0660603 0.4418
296 1 0.603906 0.210936 0.435526
313 1 0.793174 0.117394 0.263307
246 1 0.90111 0.111286 0.356936
94 1 0.750526 0.116521 0.403578
441 2 0.790448 0.206978 0.331516
163 1 0.916635 0.159737 0.484692
371 1 0.877088 0.243832 0.264685
376 1 0.140676 0.391085 0.263637
201 1 0.222599 0.354425 0.491649
333 1 0.138707 0.253139 0.284876
162 1 0.057185 0.451437 0.380999
27 1 0.0953648 0.317876 0.411037
115 1 0.193327 0.468901 0.39543
407 2 0.188814 0.362414 0.368905
423 2 0.398321 0.348462 0.497348
344 1 0.434285 0.472262 0.309181
180 1 0.267209 0.328683 0.267163
454 2 0.326177 0.268151 0.355183
97 1 0.436455 0.28781 0.394568
139 1 0.395985 0.344568 0.275716
122 1 0.323378 0.373084 0.390852
337 1 0.450904 0.426946 0.430948
5 1 0.284605 0.476507 0.297875
425 2 0.647298 0.354102 0.470489
323 1 0.629544 0.314003 0.286566
403 2 0.69019 0.467187 0.451911
167 1 0.725277 0.285034 0.421274
289 1 0.564432 0.448039 0.25783
408 2 0.512832 0.327951 0.288996
342 1 0.686225 0.43015 0.344155
78 1 0.561837 0.353431 0.393155
128 1 0.585597 0.444894 0.494697
189 1 0.774673 0.331145 0.306388
224 1 0.934002 0.490844 0.328371
463 2 0.886277 0.35045 0.336541
114 1 0.803518 0.454798 0.291466
82 1 0.864501 0.252555 0.402236
286 1 0.997523 0.342219 0.297113
142 1 0.951139 0.364062 0.440743
290 1 0.799575 0.409807 0.429932
444 2 0.8595 0.332021 0.498883
373 1 0.10552 0.118226 0.595051
244 1 0.220621 0.0923971 0.659684
152 1 0.243902 0.235757 0.684459
367 1 0.106898 0.0552656 0.724499
91 1 0.245341 0.154106 0.543265
294 1 0.0547818 0.216835 0.664958
397 2 0.000774658 0.147757 0.570516
169 1 0.35522 0.0586974 0.588907
35 1 0.447547 0.160296 0.604255
190 1 0.344485 0.146768 0.732294
426 2 0.329504 0.183487 0.61545
399 2 0.413479 0.0614023 0.689693
136 1 0.318909 0.00952637 0.735426
151 1 0.619289 0.124593 0.644444
14 1 0.731842 0.102075 0.548708
18 1 0.536361 0.246842 0.658443
476 2 0.576257 0.186795 0.546469
160 1 0.733592 0.0375044 0.683212
164 1 0.507024 0.124303 0.731176
90 1 0.532569 0.072749 0.553132
445 2 0.687694 0.142444 0.729227
264 1 0.801476 0.224972 0.523343
238 1 0.764965 0.194686 0.649728
123 1 0.974952 0.076956 0.655262
44 1 0.848618 0.0343264 0.577675
316 1 0.876851 0.154991 0.713339
386 2 0.855175 0.140562 0.602329
234 1 0.862874 0.0208385 0.707952
239 1 0.92496 0.235472 0.615864
46 1 0.118489 0.455313 0.685787
104 1 0.154918 0.269826 0.569911
53 1 0.0179565 0.365615 0.639891
118 1 0.0857996 0.403534 0.52377
57 1 0.217118 0.375744 0.630286
63 1 0.199559 0.482921 0.537159
137 1 0.0161321 0.271084 0.526017
406 2 0.270304 0.286915 0.574704
209 1 0.39995 0.299192 0.598988
11 1 0.361137 0.402467 0.691593
256 1 0.325479 0.411726 0.553334
455 2 0.486465 0.362733 0.655121
112 1 0.460125 0.442726 0.576524
456 2 0.3271 0.296207 0.733294
319 1 0.651337 0.263163 0.574707
353 1 0.599464 0.398155 0.651957
204 1 0.720153 0.407904 0.553246
477 2 0.697893 0.328273 0.660271
314 1 0.521393 0.309807 0.520053
343 1 0.729169 0.440569 0.73288
130 1 0.657947 0.251745 0.737495
66 1 0.925522 0.290749 0.73846
315 1 0.885689 0.429065 0.55321
48 1 0.856581 0.433812 0.717544
293 1 0.81623 0.33015 0.624148
462 2 0.770836 0.48692 0.616713
222 1 0.239382 0.136264 0.989916
299 1 0.0969407 0.0872726 0.887556
304 1 0.216325 0.0821543 0.804152
54 1 0.138419 0.194308 0.767458
132 1 0.00959862 0.147446 0.780236
182 1 0.142223 0.221248 0.921042
172 1 0.328594 0.12978 0.866268
187 1 0.46181 0.15688 0.86568
340 1 0.278852 0.015524 0.924624
87 1 0.414174 0.0337513 0.92235
357 1 0.423227 0.248092 0.76156
106 1 0.380494 0.240783 0.920929
20 1 0.450071 0.00142901 0.788685
461 2 0.634232 0.0208975 0.920663
83 1 0.544737 0.0798585 0.954344
275 1 0.632286 0.0384751 0.784361
395 2 0.526306 0.0707441 0.84433
379 1 0.618066 0.157484 0.841888
392 2 0.541872 0.222776 0.780073
252 1 0.736564 0.0536117 0.877386
223 1 0.507673 0.215061 0.98043
352 1 0.715023 0.184718 0.943433
213 1 0.997505 0.160574 0.956553
16 1 0.773596 0.164009 0.802647
467 2 0.973824 0.0576342 0.918338
435 2 0.86221 0.0835478 0.807238
21 1 0.858598 0.0693693 0.94738
178 1 0.898979 0.193802 0.850952
267 1 0.975316 0.0128296 0.79637
385 2 0.830068 0.182753 0.960711
191 1 0.121465 0.496579 0.972186
72 1 0.0102637 0.425297 0.763109
331 1 0.0278888 0.263403 0.848046
42 1 0.110294 0.327052 0.75953
427 2 0.172115 0.317978 0.866555
181 1 0.0467503 0.393898 0.889518
237 1 0.24158 0.377293 0.758252
111 1 0.166329 0.468733 0.839996
156 1 0.395964 0.359809 0.978981
92 1 0.31661 0.491498 0.815565
13 1 0.466904 0.464002 0.771358
354 1 0.256246 0.253423 0.843472
138 1 0.253349 0.38063 0.905577
475 2 0.338964 0.45013 0.934346
334 1 0.378289 0.360215 0.824103
468 2 0.467332 0.30799 0.881934
173 1 0.638748 0.42882 0.969035
318 1 0.715215 0.316587 0.979619
460 2 0.688919 0.481747 0.874185
400 2 0.682953 0.257075 0.857677
7 1 0.536448 0.334563 0.767788
345 1 0.692653 0.363243 0.844176
360 1 0.509197 0.413949 0.90949
335 1 0.605961 0.452021 0.783827
245 1 0.585083 0.304237 0.925721
226 1 0.910406 0.429566 0.85212
431 2 0.907395 0.410081 0.971242
40 1 0.781097 0.294599 0.753033
424 2 0.804809 0.396644 0.823514
310 1 0.775012 0.451077 0.935099
452 2 0.924424 0.31542 0.847878
298 1 0.814294 0.289882 0.890469
218 1 0.94529 0.29058 0.97765
80 1 0.220447 0.721166 0.135955
135 1 0.142231 0.59601 0.153869
417 2 0.248304 0.558093 0.201152
199 1 0.0604794 0.69749 0.130683
308 1 0.0129506 0.555771 0.10342
43 1 0.245204 0.553288 0.0696525
59 1 0.00421683 0.638925 0.240682
228 1 0.160144 0.657328 0.0197079
393 2 0.308976 0.659694 0.129437
100 1 0.372989 0.732785 0.182877
341 1 0.356244 0.574149 0.196813
146 1 0.489139 0.643155 0.131951
230 1 0.385438 0.630169 0.040051
419 2 0.437412 0.652099 0.244164
471 2 0.27796 0.643305 0.00657037
416 2 0.580156 0.623244 0.0608095
39 1 0.597321 0.714199 0.121933
351 1 0.631768 0.575825 0.170739
474 2 0.697168 0.701714 0.0772708
428 2 0.5847 0.681124 0.236477
325 1 0.708067 0.697119 0.205904
10 1 0.50807 0.552857 0.00850794
263 1 0.661176 0.552203 0.0298987
67 1 0.826042 0.749101 0.111932
274 1 0.76927 0.600268 0.101023
387 2 0.94213 0.671649 0.153543
311 1 0.902716 0.56644 0.196081
227 1 0.891172 0.616538 0.0571176
29 1 0.957156 0.741373 0.0619862
131 1 0.762715 0.579294 0.236249
58 1 0.856136 0.684937 0.237673
401 2 0.788551 0.538447 0.00969671
25 1 0.108081 0.809057 0.160719
56 1 0.192081 0.903572 0.215606
36 1 0.248496 0.902152 0.0736915
317 1 0.119714 0.934363 0.101959
76 1 0.168533 0.814796 0.0138252
88 1 0.0313479 0.860414 0.00550423
366 1 0.315285 0.761458 0.0382384
411 2 0.302335 0.816108 0.14613
285 1 0.472284 0.752797 0.0528732
33 1 0.389266 0.865388 0.0928177
300 1 0.457919 0.98002 0.143282
356 1 0.333299 0.945363 0.212944
148 1 0.499906 0.798294 0.197432
217 1 0.34018 0.997465 0.0361442
126 1 0.474775 0.928312 0.00229308
453 2 0.543781 0.999938 0.214651
75 1 0.613795 0.996747 0.134234
124 1 0.728893 0.816314 0.0247491
197 1 0.56269 0.87515 0.102284
327 1 0.680186 0.83209 0.165815
338 1 0.588059 0.901562 0.249345
268 1 0.730953 0.971967 0.222434
147 1 0.740305 0.957608 0.0952857
470 2 0.614098 0.800199 0.0363939
459 2 0.565694 0.996543 0.0242027
478 2 0.952054 0.844725 0.105942
205 1 0.962499 0.781337 0.205
174 1 0.99527 0.951598 0.175388
282 1 0.893165 0.954068 0.0560348
108 1 0.858001 0.89085 0.167808
364 1 0.121215 0.7139 0.26002
2 1 0.234704 0.607467 0.489303
15 1 0.100953 0.552116 0.488921
391 2 0.0582163 0.561509 0.320832
220 1 0.133575 0.640391 0.383928
74 1 0.245041 0.648687 0.26083
414 2 0.240499 0.585248 0.378254
96 1 0.051489 0.742916 0.46533
322 1 0.154831 0.524666 0.272996
219 1 0.331267 0.514649 0.42013
292 1 0.466697 0.55819 0.485478
405 2 0.337578 0.638429 0.436061
19 1 0.255808 0.717185 0.383427
64 1 0.371332 0.622182 0.330179
473 2 0.468142 0.600527 0.373492
450 2 0.346856 0.730371 0.313603
295 1 0.39911 0.739669 0.410397
261 1 0.561187 0.514163 0.375275
3 1 0.506017 0.723689 0.321177
324 1 0.535326 0.671837 0.438671
362 1 0.66433 0.732342 0.482246
415 2 0.744308 0.631683 0.476868
359 1 0.517406 0.590072 0.265431
418 2 0.646229 0.525608 0.292429
247 1 0.631168 0.631693 0.34215
259 1 0.738259 0.55629 0.368461
250 1 0.645193 0.571004 0.482629
349 1 0.886293 0.731734 0.38017
113 1 0.955493 0.502945 0.460949
8 1 0.985534 0.641875 0.3988
297 1 0.751063 0.694607 0.369185
41 1 0.860045 0.602951 0.342498
255 1 0.858536 0.634837 0.487361
449 2 0.833369 0.51122 0.403924
330 1 0.181764 0.896545 0.487074
328 1 0.0706973 0.890761 0.274754
145 1 0.0005712 0.764791 0.329611
85 1 0.0631976 0.924812 0.426602
288 1 0.139995 0.807173 0.370045
358 1 0.246702 0.785046 0.256581
73 1 0.191152 0.960649 0.349239
447 2 0.273926 0.894044 0.295999
242 1 0.331204 0.981735 0.348243
141 1 0.457683 0.958277 0.280121
378 1 0.295671 0.862166 0.409827
380 1 0.444441 0.887687 0.402303
69 1 0.387537 0.835408 0.294477
420 2 0.499192 0.846845 0.309725
166 1 0.279043 0.995251 0.483434
60 1 0.564316 0.95044 0.372367
409 2 0.692117 0.812996 0.39689
361 1 0.566837 0.810809 0.412535
446 2 0.644102 0.935639 0.452486
221 1 0.634624 0.778113 0.299226
307 1 0.699612 0.914686 0.337329
179 1 0.892577 0.967114 0.46015
95 1 0.928638 0.882998 0.299753
283 1 0.764986 0.990038 0.451128
231 1 0.793466 0.809591 0.254996
363 1 0.806127 0.863955 0.395414
346 1 0.951174 0.846046 0.44245
258 1 0.824752 0.988665 0.325203
437 2 0.918464 0.99551 0.259661
248 1 0.145826 0.600835 0.615738
154 1 0.0898131 0.71814 0.627856
51 1 0.00121953 0.633111 0.553554
158 1 0.178397 0.701201 0.74903
429 2 0.0424453 0.615741 0.672768
412 2 0.126375 0.664065 0.505152
305 1 0.00943562 0.501277 0.607185
86 1 0.291811 0.681605 0.666847
370 1 0.438349 0.665843 0.586348
143 1 0.413844 0.569104 0.682709
276 1 0.321273 0.707693 0.530042
149 1 0.327443 0.556361 0.575843
45 1 0.257812 0.526065 0.687951
52 1 0.502534 0.727782 0.708909
451 2 0.542165 0.547298 0.557232
339 1 0.574191 0.652975 0.580818
129 1 0.711456 0.648065 0.583006
79 1 0.648347 0.684908 0.717739
159 1 0.558005 0.568462 0.709026
232 1 0.657088 0.518586 0.622495
243 1 0.783033 0.525299 0.516373
196 1 0.936206 0.677364 0.664882
55 1 0.780208 0.630578 0.693368
438 2 0.827595 0.668075 0.599297
211 1 0.865943 0.564479 0.613312
116 1 0.934698 0.747059 0.540573
270 1 0.961391 0.553164 0.732326
440 2 0.872791 0.631718 0.74772
81 1 0.0786629 0.843512 0.555213
464 2 0.133393 0.87797 0.647552
284 1 0.102041 0.826923 0.738012
26 1 0.218942 0.806251 0.648249
28 1 0.187788 0.947809 0.727546
202 1 0.0307979 0.937817 0.677165
30 1 0.142966 0.985617 0.596497
269 1 0.00774913 0.987827 0.545579
155 1 0.189642 0.757904 0.511009
472 2 0.358044 0.806331 0.501184
480 2 0.448259 0.994514 0.560117
279 1 0.486391 0.793563 0.521786
273 1 0.270617 0.927831 0.604883
89 1 0.393625 0.904391 0.536893
254 1 0.421307 0.937052 0.670787
192 1 0.393214 0.782028 0.643535
17 1 0.302497 0.868135 0.737332
105 1 0.707889 0.863212 0.503736
434 2 0.59055 0.815593 0.553575
110 1 0.538621 0.859529 0.647664
347 1 0.684049 0.785098 0.61677
312 1 0.658262 0.912524 0.690027
365 1 0.549129 0.997723 0.674149
93 1 0.660103 0.98944 0.564292
210 1 0.543354 0.932447 0.515382
302 1 0.830458 0.770524 0.649188
188 1 0.984294 0.808805 0.660261
70 1 0.785268 0.908947 0.636864
432 2 0.829963 0.903607 0.516116
107 1 0.915026 0.901495 0.592018
168 1 0.878923 0.889476 0.72944
37 1 0.797408 0.762379 0.506918
321 1 0.102771 0.577844 0.750073
236 1 0.0333477 0.640084 0.991463
195 1 0.0256994 0.528574 0.864526
125 1 0.154951 0.626266 0.879349
448 2 0.0140353 0.670543 0.889329
32 1 0.0403569 0.702919 0.768315
198 1 0.227157 0.731052 0.921307
436 2 0.0158887 0.525406 0.976583
479 2 0.0831047 0.737759 0.998031
175 1 0.423263 0.527096 0.893433
374 1 0.275231 0.617583 0.794292
99 1 0.352353 0.674507 0.900632
241 1 0.477348 0.623671 0.800998
23 1 0.262455 0.546411 0.932245
206 1 0.488717 0.678231 0.941772
332 1 0.369804 0.72647 0.775263
68 1 0.683784 0.564641 0.785711
200 1 0.623463 0.700124 0.98434
183 1 0.58798 0.544965 0.886566
278 1 0.584872 0.679378 0.846977
71 1 0.729473 0.583255 0.914766
120 1 0.911286 0.749395 0.776049
6 1 0.899379 0.533136 0.954336
336 1 0.809241 0.535739 0.810817
240 1 0.918827 0.613977 0.846562
24 1 0.78535 0.691169 0.83187
77 1 0.792538 0.69931 0.981296
280 1 0.165295 0.971713 0.981708
212 1 0.0957335 0.769437 0.883113
134 1 0.0922464 0.948836 0.848716
47 1 0.203928 0.818665 0.814566
457 2 0.219135 0.94408 0.840721
390 2 0.364328 0.902613 0.976122
309 1 0.258752 0.882352 0.926472
216 1 0.445933 0.839904 0.777571
396 2 0.309313 0.806776 0.848296
348 1 0.401065 0.794297 0.932172
458 2 0.459741 0.890156 0.88879
127 1 0.358383 0.915655 0.8509
439 2 0.483408 0.755306 0.862949
161 1 0.555108 0.820062 0.941298
265 1 0.694065 0.784536 0.881409
229 1 0.639258 0.920581 0.986657
394 2 0.531643 0.909178 0.75475
65 1 0.695774 0.928389 0.836171
185 1 0.600314 0.830696 0.792042
153 1 0.561069 0.949138 0.864346
176 1 0.995193 0.854858 0.816525
281 1 0.945588 0.939861 0.916183
465 2 0.776807 0.92887 0.750734
177 1 0.836827 0.843284 0.868785
4 1 0.774532 0.931718 0.95264
214 1 0.838258 0.974925 0.832473
186 1 0.955512 0.767881 0.920089
184 1 0.754712 0.818322 0.752723
272 1 0.867719 0.831605 0.99949
ITEM: TIMESTEP
60000
ITEM: NUMBER OF ATOMS
480
ITEM: BOX BOUNDS pp pp pp
0.0000000000000000e+00 7.3680629972807701e+00
0.0000000000000000e+00 7.3680629972807701e+00
0.0000000000000000e+00 7.3680629972807701e+00
ITEM: ATOMS id type xs ys zs
391 2 0.0900397 0.112579 0.099713
130 1 0.662179 0.381252 0.0106038
282 1 0.0346868 0.154303 0.197348
359 1 0.549076 0.509002 0.338191
377 1 0.235846 0.243935 0.205703
410 2 0.00458407 0.0333838 0.237765
1 1 0.448523 0.499183 0.235889
194 1 0.233612 0.114521 0.156526
257 1 0.406858 0.264345 0.086342
114 1 0.736476 0.3219 0.457555
300 1 0.450601 0.0817691 0.114452
388 2 0.358228 0.152216 0.145762
109 1 0.32944 0.138652 0.0110714
62 1 0.246354 0.236997 0.0694088
368 1 0.698327 0.0695656 0.128594
398 2 0.493809 0.184937 0.104427
384 1 0.610801 0.0671288 0.0223584
301 1 0.609105 0.169207 0.133793
215 1 0.510703 0.232092 0.206416
389 2 0.690144 0.149424 0.0497929
285 1 0.582574 0.0234602 0.184546
34 1 0.832218 0.119075 0.1018
246 1 0.904468 0.0803982 0.21183
452 2 0.939239 0.19684 0.1531
297 1 0.773924 0.120478 0.240116
299 1 0.972446 0.115424 0.0714727
233 1 0.738387 0.21516 0.138945
218 1 0.985066 0.256349 0.0722594
401 2 0.832581 0.247166 0.0902879
27 1 0.8576 0.227378 0.240274
253 1 0.943568 0.0212523 0.344749
182 1 0.116019 0.241132 0.117336
407 2 0.131366 0.292001 0.223512
454 2 0.230798 0.38012 0.22995
172 1 0.179178 0.367451 0.105073
375 1 0.041051 0.368247 0.131791
41 1 0.12789 0.409674 0.233853
181 1 0.0248898 0.478014 0.0163816
51 1 0.935863 0.375528 0.41661
476 2 0.481438 0.184982 0.478102
303 1 0.45402 0.398765 0.138486
9 1 0.0743639 0.0126742 0.480916
428 2 0.694922 0.443003 0.100634
326 1 0.344536 0.369034 0.268089
180 1 0.312481 0.354803 0.13276
118 1 0.241568 0.480083 0.16015
466 2 0.412932 0.300333 0.198106
475 2 0.351975 0.45332 0.169388
408 2 0.683173 0.304075 0.0937879
345 1 0.585236 0.408548 0.127691
287 1 0.639326 0.308097 0.205949
223 1 0.551617 0.287551 0.0853463
150 1 0.777563 0.361296 0.0839758
355 1 0.797883 0.451762 0.196343
187 1 0.739817 0.2446 0.00632904
84 1 0.0101356 0.279709 0.251193
433 2 0.767554 0.327768 0.195758
224 1 0.958567 0.467933 0.190667
50 1 0.895656 0.33723 0.159731
320 1 0.892129 0.329333 0.0168513
308 1 0.877185 0.47507 0.0619127
144 1 0.122063 0.20228 0.298303
422 2 0.154592 0.11945 0.239581
49 1 0.0922357 0.142861 0.424858
98 1 0.0833514 0.0558631 0.317938
63 1 0.228726 0.2293 0.421285
85 1 0.199218 0.00324439 0.411247
329 1 0.0679094 0.0266542 0.0220711
317 1 0.373874 0.202566 0.253575
56 1 0.354661 0.0619311 0.238889
382 1 0.24436 0.130914 0.313894
133 1 0.369978 0.176506 0.418557
480 2 0.409233 0.117012 0.324492
242 1 0.457537 0.0602157 0.431388
447 2 0.323759 0.255807 0.334442
166 1 0.332906 0.035593 0.382265
271 1 0.508235 0.185777 0.368398
165 1 0.501049 0.100383 0.26112
296 1 0.602605 0.0626827 0.389453
283 1 0.635942 0.181136 0.277292
443 2 0.659407 0.0694754 0.260404
94 1 0.737457 0.0885279 0.367784
31 1 0.688026 0.210226 0.410717
403 2 0.82483 0.358771 0.401518
444 2 0.990415 0.101409 0.444043
350 1 0.973541 0.1699 0.326443
12 1 0.865232 0.116881 0.40971
137 1 0.954855 0.224087 0.453365
441 2 0.82921 0.0455832 0.30903
430 2 0.742293 0.231282 0.267655
170 1 0.106462 0.0237881 0.175798
249 1 0.835314 0.24191 0.373303
266 1 0.933055 0.000691314 0.489106
113 1 0.0659498 0.299935 0.396546
473 2 0.135363 0.452971 0.354912
372 1 0.197605 0.322585 0.318141
286 1 0.0163545 0.426488 0.323595
122 1 0.173166 0.372104 0.453606
425 2 0.266067 0.445908 0.446529
139 1 0.438215 0.296387 0.338594
220 1 0.24471 0.445842 0.323604
322 1 0.317597 0.329319 0.430995
74 1 0.405052 0.440401 0.36532
400 2 0.424498 0.0489589 -0.00160726
369 1 0.443221 0.301933 0.484941
219 1 0.529348 0.416102 0.462919
463 2 0.956644 0.278179 0.353726
310 1 0.678345 0.476962 0.258915
102 1 0.53196 0.392747 0.254517
324 1 0.661834 0.437363 0.420695
323 1 0.736778 0.343116 0.31974
251 1 0.596112 0.312407 0.355115
316 1 0.579452 0.133344 0.501977
189 1 0.877296 0.362974 0.296084
342 1 0.785219 0.464683 0.373191
277 1 0.343953 0.466592 0.0558957
467 2 0.376076 0.376753 -0.00316493
356 1 0.318085 0.0223961 0.0911566
106 1 0.18435 0.103887 0.0316978
264 1 0.716284 0.0534256 0.502066
228 1 0.266724 0.349537 -0.00805388
119 1 0.135572 0.125013 0.579208
423 2 0.15498 0.0602835 0.677641
357 1 0.0257414 0.129197 0.692474
42 1 0.170267 0.190694 0.710287
48 1 0.862184 0.495 0.745329
87 1 0.271925 0.0774999 0.64092
35 1 0.395069 0.108819 0.547163
395 2 0.241582 0.17193 0.608868
365 1 0.383581 0.162729 0.678632
399 2 0.390881 0.036666 0.654866
319 1 0.508659 0.0871464 0.617274
149 1 0.474589 0.223522 0.589575
256 1 0.313076 0.245822 0.544135
164 1 0.483522 0.144107 0.981499
121 1 0.508887 0.188931 0.717264
477 2 0.631575 0.0793097 0.600336
261 1 0.61578 0.197285 0.615603
103 1 0.0726229 0.199322 0.975195
14 1 0.735635 0.136819 0.62351
20 1 0.492194 0.0661654 0.780224
333 1 0.049067 0.290537 0.5388
259 1 0.758731 0.4544 0.530253
469 2 0.569139 0.447624 0.935818
179 1 0.979243 0.126421 0.550315
104 1 0.938108 0.261466 0.601227
347 1 0.842767 0.080072 0.556984
163 1 0.815543 0.205255 0.503081
152 1 0.894053 0.15481 0.690186
239 1 0.83659 0.280408 0.886578
117 1 0.188078 0.276414 0.569521
208 1 0.0614915 0.265857 0.678883
404 2 0.491377 0.263279 0.959724
162 1 0.109266 0.39453 0.635345
243 1 0.0105578 0.432687 0.520288
193 1 0.247875 0.123935 0.49607
471 2 0.415753 -0.00581537 0.861116
97 1 0.257335 0.38678 0.570922
11 1 0.393049 0.336313 0.628519
209 1 0.278432 0.269388 0.67504
260 1 0.388674 0.2717 0.766972
314 1 0.308272 0.408117 0.762235
456 2 0.464188 0.434369 0.574007
337 1 0.513258 0.477634 0.680079
446 2 0.703309 0.227744 0.533412
184 1 0.610303 0.443585 0.582199
22 1 0.750214 0.0780986 0.98405
289 1 0.542781 0.338075 0.62365
24 1 0.68591 0.331716 0.590567
343 1 0.689769 0.246293 0.722936
247 1 0.639676 0.420441 0.711697
112 1 0.380699 0.462942 0.660256
412 2 0.875044 0.452782 0.584348
315 1 0.962775 0.390404 0.661196
44 1 0.890234 0.323937 0.760702
167 1 0.807556 0.397313 0.670553
204 1 0.809836 0.259154 0.635501
82 1 0.854414 0.352419 0.539167
435 2 0.973504 0.435041 0.764604
142 1 0.0845229 0.193403 0.81833
54 1 0.123273 0.091947 0.90139
367 1 0.988722 0.0846484 0.902241
127 1 0.233151 0.187199 0.921764
406 2 0.200996 0.229671 0.822367
190 1 0.209339 0.0772415 0.793863
379 1 0.684901 0.238301 0.862025
47 1 0.350627 0.0425155 0.770141
334 1 0.579293 0.321151 0.898907
252 1 0.863046 0.197993 0.985921
385 2 0.280002 0.0690336 0.913828
83 1 0.3849 0.104893 0.890401
262 1 0.292897 0.175812 0.785568
465 2 0.408265 0.144253 0.787454
93 1 0.47906 0.217289 0.855166
217 1 0.50869 0.0151337 0.91839
128 1 0.633844 0.112073 0.725286
7 1 0.673712 0.426253 0.865671
151 1 0.587691 0.134174 0.871088
293 1 0.721238 0.0958136 0.836037
123 1 0.0584503 -0.00264715 0.627125
445 2 0.608964 0.0389977 0.806813
451 2 0.594988 0.223053 0.789709
46 1 0.97437 0.275607 0.910886
459 2 0.973533 0.394832 0.963853
4 1 0.810418 0.0467069 0.731176
160 1 0.806046 0.186354 0.783498
66 1 0.945612 0.190489 0.810097
413 2 0.780159 0.174732 0.897564
267 1 0.853393 0.0890531 0.876267
294 1 0.938997 0.0241982 0.7917
16 1 0.766247 0.362071 0.794006
57 1 0.180737 0.333473 0.733232
298 1 0.920311 0.405719 0.861886
53 1 0.101677 0.469146 0.751214
305 1 0.0480979 0.451223 0.876763
132 1 0.136916 0.30467 0.888899
354 1 0.193444 0.430734 0.864322
91 1 0.0809789 0.0154109 0.76681
331 1 0.035919 0.324318 0.796887
392 2 0.651444 0.334354 0.798543
427 2 0.463384 0.377926 0.727421
13 1 0.279458 0.305013 0.848826
156 1 0.382597 0.273116 0.952245
245 1 0.420885 0.366131 0.862821
125 1 0.324629 0.449683 0.908991
352 1 0.795436 0.41795 0.942016
353 1 0.546081 0.471913 0.813681
458 2 0.725643 0.328144 0.924053
18 1 0.544147 0.325002 0.769576
78 1 0.588126 0.277904 0.506035
21 1 0.896837 0.0207511 0.992897
468 2 0.74515 0.471694 0.734799
86 1 0.218926 0.476852 0.673594
376 1 0.362783 0.450025 0.502725
235 1 0.0695384 0.346512 0.997431
107 1 0.924926 0.0185969 0.661124
75 1 0.605495 0.210752 0.989843
360 1 0.445044 0.496255 0.932248
381 1 0.580635 0.000190908 0.50364
222 1 0.163903 0.461009 0.996954
304 1 0.489305 0.378335 0.999491
431 2 0.174894 0.274894 1.00063
199 1 0.062006 0.657812 0.198472
419 2 0.067266 0.662993 0.0753014
387 2 0.210269 0.533386 0.258505
69 1 0.198406 0.608465 0.165602
43 1 0.134086 0.589375 0.0293836
76 1 0.975412 0.586796 0.0932716
415 2 0.549614 0.69715 0.491479
436 2 0.254137 0.552591 0.0589878
174 1 0.971108 0.870024 0.0265489
138 1 0.339272 0.582028 0.13822
416 2 0.47535 0.696926 0.065227
5 1 0.373662 0.718165 0.122424
146 1 0.469691 0.645217 0.182556
225 1 0.460814 0.965135 0.295742
383 1 0.587567 0.65969 0.110434
77 1 0.606919 0.52928 0.0650717
306 1 0.623919 0.651876 0.240754
470 2 0.693206 0.76583 0.21823
10 1 0.688596 0.649301 0.0149978
318 1 0.564798 0.531763 0.196639
361 1 0.541786 0.759807 0.219427
258 1 0.892293 0.857656 0.4584
457 2 0.27546 0.920097 0.0124418
263 1 0.705196 0.580624 0.154659
274 1 0.91102 0.707952 0.150857
311 1 0.866452 0.567793 0.193135
8 1 0.775528 0.678645 0.216487
6 1 0.821559 0.60259 0.0718285
231 1 0.772408 0.746147 0.0996191
191 1 0.0783883 0.503781 0.136417
73 1 0.147781 0.73289 0.118426
95 1 0.148438 0.888462 0.199682
96 1 0.0316848 0.80251 0.143001
328 1 0.195374 0.968011 0.0943985
19 1 0.250581 0.663702 0.0481943
234 1 0.832995 0.880705 0.00627105
105 1 0.682911 0.949851 0.40724
432 2 0.189823 0.756085 0.217863
230 1 0.42404 0.822657 0.207209
141 1 0.403731 0.949524 0.168746
309 1 0.371345 0.864141 0.0554821
110 1 0.290658 0.829055 0.172019
288 1 0.234727 0.807213 0.0470935
108 1 0.828814 0.975028 0.107341
411 2 0.291945 0.954659 0.187373
351 1 0.77417 0.84217 0.209066
348 1 0.504173 0.970396 0.0472299
161 1 0.510337 0.810798 0.0916449
148 1 0.542179 0.894985 0.201726
221 1 0.64276 0.795404 0.109712
126 1 0.684312 0.91915 0.161413
338 1 0.712838 0.953348 0.0200789
453 2 0.592952 0.896051 0.0858258
213 1 0.972692 0.994364 0.125234
61 1 0.0231374 0.921441 0.233488
478 2 0.752894 0.860465 0.0896369
409 2 0.872969 0.786237 0.0617256
171 1 0.893589 0.856935 0.141109
168 1 0.670587 0.684411 0.4604
421 2 0.892004 0.915751 0.347073
116 1 0.120487 0.749983 0.403602
154 1 0.178707 0.563004 0.376833
2 1 0.16101 0.667146 0.286415
135 1 0.0363625 0.644517 0.339677
173 1 0.464152 0.520029 0.086532
115 1 0.092525 0.537431 0.278852
358 1 0.290054 0.701131 0.237293
155 1 0.24329 0.684488 0.406708
341 1 0.310685 0.562357 0.283161
414 2 0.35284 0.657729 0.393703
276 1 0.314541 0.556702 0.435732
64 1 0.433205 0.705229 0.291163
101 1 0.435299 0.5812 0.367089
405 2 0.465921 0.50468 0.45022
295 1 0.423224 0.647742 0.474765
140 1 0.733721 0.508588 0.0186038
131 1 0.545741 0.587028 0.447549
236 1 0.670012 0.576306 0.358844
203 1 0.715995 0.721937 0.335598
362 1 0.569392 0.714685 0.355572
461 2 0.514566 0.629286 0.29049
89 1 0.506351 0.799364 0.471599
449 2 0.996105 0.56839 0.219567
364 1 0.913366 0.67675 0.286097
58 1 0.78773 0.609375 0.465819
145 1 0.841565 0.733318 0.403491
59 1 0.924605 0.824736 0.277758
418 2 0.901497 0.594056 0.387907
250 1 0.975465 0.627393 0.474743
211 1 0.802893 0.596984 0.318481
302 1 0.978426 0.759474 0.397434
269 1 0.00833593 0.902981 0.386927
437 2 0.830143 0.760611 0.281748
330 1 0.110391 0.872843 0.476806
188 1 0.139839 0.904653 0.340959
38 1 0.0665237 0.783238 0.281072
268 1 0.819205 0.980215 0.411462
176 1 0.228343 0.803737 0.311708
273 1 0.258499 0.874283 0.441853
378 1 0.325022 0.914744 0.301758
143 1 0.362708 0.775573 0.40241
33 1 0.482087 0.832541 0.329013
455 2 0.349899 0.785431 0.285276
3 1 0.402344 0.920319 0.424987
440 2 0.463985 0.724304 0.389063
313 1 0.731513 0.980829 0.284944
371 1 0.92444 0.522448 0.311461
363 1 0.645441 0.863815 0.290027
185 1 0.634198 0.815539 0.430049
442 2 0.600406 0.969508 0.289373
60 1 0.5395 0.926794 0.4016
325 1 0.784093 0.853896 0.348547
307 1 0.85973 0.959278 0.247885
157 1 0.112057 0.872556 0.0400453
207 1 0.365307 0.600868 -0.000917165
45 1 0.117334 0.639923 0.492756
212 1 0.961172 0.724285 0.0168241
15 1 0.0445118 0.519144 0.420889
346 1 0.215897 1.00157 0.259421
290 1 0.894859 0.509044 0.468668
450 2 0.316445 0.746795 0.0124256
26 1 0.161595 0.752481 0.695019
429 2 0.125347 0.660564 0.603438
158 1 0.212435 0.621204 0.654924
248 1 0.203064 0.765953 0.538884
321 1 0.0867484 0.610513 0.740412
37 1 0.0444334 0.755932 0.530294
237 1 0.106144 0.543247 0.608523
438 2 0.99418 0.533463 0.555678
420 2 0.757516 0.941347 0.506949
79 1 0.406241 0.628672 0.680482
192 1 0.320747 0.694208 0.562709
393 2 0.315655 0.558833 0.716735
380 1 0.322702 0.56432 0.586628
370 1 0.465654 0.731545 0.585991
472 2 0.242583 0.632224 0.518255
52 1 0.361468 0.842915 0.539665
232 1 0.540086 0.732571 0.707003
434 2 0.603473 0.546604 0.690212
292 1 0.570989 0.622667 0.601343
272 1 0.704174 0.794808 0.990206
200 1 0.658874 0.67341 0.694949
255 1 0.666044 0.553051 0.500239
226 1 0.988391 0.517599 0.678338
71 1 0.827431 0.742118 0.769592
397 2 0.626325 0.736238 0.781241
17 1 0.192981 0.992325 0.564503
240 1 0.747679 0.685597 0.582782
68 1 0.997546 0.640524 0.603451
120 1 0.88275 0.707925 0.543957
55 1 0.848811 0.558131 0.59236
462 2 0.837463 0.692253 0.660451
186 1 0.93108 0.637943 0.720733
270 1 0.784168 0.61659 0.73754
169 1 0.205273 0.950558 0.702706
281 1 0.106368 0.871588 0.625561
81 1 0.972953 0.879682 0.564569
129 1 0.945493 0.805868 0.792671
426 2 0.226045 0.884921 0.57323
134 1 0.27393 0.81905 0.666094
136 1 0.33342 0.942281 0.670846
394 2 0.390455 0.829853 0.648323
23 1 0.407181 0.755281 0.741869
312 1 0.461768 0.947063 0.708756
90 1 0.323623 0.992578 0.511614
254 1 0.445153 0.96512 0.554399
241 1 0.426128 0.735127 0.965813
279 1 0.615358 0.762989 0.573617
275 1 0.622372 0.839111 0.719515
339 1 0.512463 0.8487 0.60256
210 1 0.640206 0.893616 0.550208
202 1 0.890349 0.799821 0.643631
196 1 0.0221745 0.763445 0.666464
198 1 1.0002 0.897275 0.70813
65 1 0.741604 0.83491 0.6535
70 1 0.727583 0.996258 0.631708
30 1 0.842793 0.922732 0.586639
386 2 0.727146 0.845215 0.76564