ITEM: TIMESTEP
0
ITEM: NUMBER OF ATOMS
480
ITEM: BOX BOUNDS pp pp pp
0.0000000000000000e+00 7.3680629972807701e+00
0.0000000000000000e+00 7.3680629972807701e+00
0.0000000000000000e+00 7.3680629972807701e+00
ITEM: ATOMS id type xs ys zs
72 1 0.0147092 0.12051 0.0693663
76 1 0.030989 0.229805 0.1797
253 1 0.143343 0.137403 0.137255
45 1 0.204948 0.217069 0.218875
436 2 0.234226 0.0932916 0.0476251
62 1 0.227938 0.206174 0.0255979
174 1 0.128728 0.0261577 0.04847
293 1 0.230862 0.0801502 0.244466
27 1 0.0537358 0.0312599 0.167543
368 1 0.255783 0.0171122 0.116778
304 1 0.430246 0.197903 0.0919519
388 2 0.395802 0.0981147 0.161404
95 1 0.345037 0.0875431 0.027564
146 1 0.294557 0.145284 0.146952
331 1 0.4185 0.00224112 0.126232
180 1 0.456769 0.246187 0.230625
238 1 0.732928 0.020057 0.13448
85 1 0.661915 0.196329 0.105209
246 1 0.548814 0.144741 0.190871
397 2 0.646398 0.100382 0.160811
353 1 0.532492 0.0171532 0.213557
61 1 0.526598 0.0899416 0.068299
425 2 0.959903 0.093469 0.17703
132 1 0.767235 0.154508 0.18207
224 1 0.866685 0.0607871 0.118453
97 1 0.907319 0.18215 0.132577
48 1 0.783382 0.175485 0.0463202
444 2 0.780726 0.067941 0.0193554
2 1 0.0999029 0.251335 0.0440746
462 2 0.0769723 0.459641 0.1206
91 1 0.055056 0.349387 0.124036
272 1 0.190079 0.450072 0.105318
226 1 0.229927 0.319565 0.108809
460 2 0.235482 0.466863 0.233925
329 1 0.135165 0.409894 0.228448
74 1 0.00398253 0.463789 0.22327
41 1 0.0929318 0.497861 0.0143046
332 1 0.346654 0.298074 0.0343392
415 2 0.261319 0.41862 0.0279829
458 2 0.482198 0.475806 0.132157
393 2 0.348767 0.261416 0.14728
22 1 0.327471 0.412972 0.143759
29 1 0.451304 0.410982 0.234241
77 1 0.3747 0.457468 0.0168881
60 1 0.441557 0.329672 0.11502
418 2 0.356815 0.313625 0.248475
341 1 0.60707 0.467575 0.245621
461 2 0.660227 0.297426 0.155675
33 1 0.50519 0.419911 0.0344877
323 1 0.570308 0.296825 0.080581
39 1 0.615704 0.433002 0.108469
20 1 0.57572 0.330083 0.22373
109 1 0.73452 0.363195 0.203474
384 1 0.727673 0.499397 0.18587
165 1 0.951474 0.450835 0.0543184
471 2 0.981761 0.264727 0.0529548
286 1 0.849206 0.259915 0.232287
64 1 0.75379 0.312877 0.0707514
50 1 0.894009 0.324159 0.0930903
228 1 0.799609 0.438699 0.0864869
469 2 0.93458 0.395856 0.167967
137 1 0.881318 0.498781 0.173252
173 1 0.0849224 0.132052 0.270878
102 1 0.215379 0.154277 0.476611
221 1 0.0826628 0.0769498 0.489742
396 2 0.193735 0.161242 0.314072
19 1 0.169446 0.0713331 0.380044
56 1 0.0951454 0.185575 0.399833
391 2 0.0146014 0.214077 0.323731
334 1 0.0334053 0.0152144 0.352516
113 1 0.224271 0.0233716 0.493758
128 1 0.431272 0.103964 0.276061
417 2 0.371971 0.033001 0.41503
83 1 0.445566 0.13665 0.433708
371 1 0.315426 0.121257 0.374778
441 2 0.424339 0.2003 0.335144
46 1 0.328128 0.208546 0.257889
81 1 0.340759 0.233936 0.472139
114 1 0.474375 0.0105578 0.36092
38 1 0.681089 0.0662453 0.263037
75 1 0.655552 0.215151 0.25191
343 1 0.56744 0.176435 0.484258
420 2 0.608829 0.0796826 0.455494
123 1 0.67195 0.174691 0.388543
3 1 0.560649 0.113097 0.33828
117 1 0.734376 0.0574312 0.414642
395 2 0.80176 0.0617351 0.261883
65 1 0.94049 0.161331 0.263359
136 1 0.881324 0.0200391 0.463228
255 1 0.983568 0.230773 0.47413
150 1 0.792892 0.192497 0.457226
125 1 0.904649 0.0383494 0.301304
196 1 0.81687 0.156857 0.330496
252 1 0.966153 0.121316 0.402302
71 1 0.156203 0.310816 0.467216
358 1 0.0670195 0.424345 0.482282
40 1 0.021101 0.492011 0.361503
101 1 0.0964257 0.278846 0.283545
112 1 0.144739 0.397564 0.369782
211 1 0.0115733 0.341225 0.379189
138 1 0.232108 0.254395 0.373972
82 1 0.257835 0.36238 0.274639
303 1 0.345655 0.472699 0.282747
92 1 0.269463 0.374856 0.40477
176 1 0.39186 0.429489 0.437819
55 1 0.484726 0.289404 0.49604
31 1 0.40943 0.318022 0.343903
373 1 0.675128 0.424979 0.486933
124 1 0.749777 0.285371 0.32708
116 1 0.542851 0.252923 0.328908
24 1 0.733387 0.434284 0.344014
84 1 0.532594 0.396608 0.367329
106 1 0.629595 0.302305 0.4529
477 2 0.633681 0.342605 0.340566
378 1 0.540226 0.477319 0.482054
88 1 0.967254 0.323302 0.256152
260 1 0.894779 0.268085 0.376536
306 1 0.794299 0.348991 0.438834
100 1 0.898088 0.457845 0.40176
143 1 0.850697 0.390924 0.287321
225 1 0.184191 0.209493 0.677563
140 1 0.0673389 0.142651 0.676609
11 1 0.175487 0.0773072 0.605156
222 1 0.105705 0.201333 0.54505
292 1 0.26615 0.0648721 0.712618
183 1 0.464576 0.144557 0.714481
295 1 0.310198 0.144151 0.62234
317 1 0.433541 0.172816 0.575347
476 2 0.384523 0.0586836 0.704511
213 1 0.420104 0.0324075 0.589266
153 1 0.340511 0.0872332 0.500414
210 1 0.549728 0.0926515 0.609654
107 1 0.701588 0.117146 0.532455
257 1 0.627892 0.155365 0.724255
184 1 0.726141 0.0691894 0.660172
141 1 0.625163 0.220802 0.600413
398 2 0.622959 0.026335 0.561173
318 1 0.527595 0.0218503 0.500218
473 2 0.558413 0.0640442 0.738458
403 2 0.722979 0.24571 0.530669
243 1 0.949901 0.0593373 0.732448
298 1 0.754607 0.210738 0.650087
57 1 0.966999 0.11043 0.563653
90 1 0.833395 0.111384 0.585568
382 1 0.882995 0.172521 0.709037
424 2 0.830441 0.0333268 0.66867
407 2 0.894081 0.158125 0.50356
406 2 0.0598827 0.314537 0.512321
51 1 0.246499 0.254472 0.558381
115 1 0.195774 0.434373 0.537936
54 1 0.127597 0.323839 0.60986
433 2 0.0344131 0.326584 0.70297
264 1 0.151607 0.334795 0.739724
354 1 0.0826378 0.460171 0.732067
404 2 0.129028 0.440211 0.62293
14 1 0.256119 0.346238 0.663344
333 1 0.371356 0.336883 0.568891
181 1 0.315504 0.466812 0.642238
86 1 0.361285 0.256537 0.69359
206 1 0.43367 0.387933 0.675302
448 2 0.472308 0.403823 0.542022
463 2 0.309559 0.418483 0.518533
416 2 0.650577 0.320403 0.671927
139 1 0.531572 0.260074 0.670393
290 1 0.578767 0.353155 0.578727
271 1 0.680164 0.429293 0.661303
233 1 0.546681 0.483027 0.626238
164 1 0.74454 0.317443 0.726695
380 1 0.74536 0.343001 0.585388
453 2 0.580797 0.414758 0.710716
178 1 0.996633 0.273514 0.610635
223 1 0.864286 0.259906 0.551211
455 2 0.867805 0.35782 0.621322
145 1 0.988215 0.404169 0.635267
230 1 0.811422 0.428509 0.694597
235 1 0.910635 0.309641 0.721671
190 1 0.84255 0.442577 0.529703
387 2 0.960644 0.490452 0.532997
111 1 0.94944 0.361224 0.50052
193 1 0.0209273 0.0123913 0.963711
411 2 0.122256 0.238699 0.788217
6 1 0.101075 0.140387 0.976233
262 1 0.0587059 0.112835 0.838792
93 1 0.16725 0.249366 0.906698
356 1 0.1945 0.142626 0.805802
430 2 0.186671 0.0744882 0.92088
240 1 0.00282802 0.227257 0.771153
21 1 0.0252842 0.232883 0.905288
170 1 0.125785 0.0342192 0.752694
66 1 0.351433 0.14721 0.786056
266 1 0.285683 0.157481 0.913124
216 1 0.441326 0.0411455 0.824324
179 1 0.438384 0.146925 0.923533
15 1 0.301112 0.0265721 0.851652
392 2 0.347808 0.192522 0.999814
300 1 0.446639 0.0133883 0.98667
154 1 0.676281 0.0563193 0.991532
215 1 0.565334 0.205661 0.976915
182 1 0.66738 0.0624593 0.82359
214 1 0.531465 0.200115 0.839483
239 1 0.738589 0.183461 0.792155
207 1 0.693605 0.188669 0.933808
237 1 0.559598 0.0636151 0.907798
200 1 0.909747 0.219302 0.977749
479 2 0.970055 0.130507 0.917827
144 1 0.924101 0.0379396 0.866334
161 1 0.896125 0.175008 0.842688
219 1 0.779425 0.0888885 0.901624
142 1 0.812289 0.0657235 0.780182
1 1 0.885379 0.0838294 0.993613
30 1 0.149388 0.378147 0.982085
454 2 0.189973 0.474071 0.906069
171 1 0.0646797 0.358941 0.840488
459 2 0.187423 0.356487 0.876517
287 1 0.217555 0.446816 0.797517
351 1 0.00406526 0.350856 0.984651
438 2 0.447677 0.276502 0.769848
312 1 0.377878 0.258816 0.866174
130 1 0.477946 0.325302 0.941765
242 1 0.254024 0.266419 0.79234
59 1 0.307522 0.368742 0.916419
245 1 0.359036 0.360954 0.787932
35 1 0.435439 0.469844 0.889926
389 2 0.51672 0.468847 0.809719
231 1 0.530633 0.356915 0.79057
409 2 0.581329 0.304626 0.903526
269 1 0.640997 0.273362 0.807926
36 1 0.735951 0.451491 0.929712
4 1 0.667916 0.408552 0.815746
256 1 0.569887 0.431644 0.898668
34 1 0.664092 0.31769 0.973962
18 1 0.814896 0.431947 0.821657
457 2 0.832081 0.254307 0.783617
336 1 0.78123 0.287198 0.88704
87 1 0.848526 0.374687 0.976225
250 1 0.946538 0.434768 0.768659
288 1 0.924596 0.321479 0.858374
151 1 0.954555 0.464358 0.896528
177 1 0.152666 0.58719 0.104362
319 1 0.22742 0.698062 0.160679
315 1 0.0775042 0.672116 0.178113
310 1 0.152087 0.558428 0.233431
431 2 0.0310333 0.638699 0.0496777
383 1 0.00835933 0.551425 0.123213
340 1 0.139357 0.724496 0.051709
456 2 0.0294707 0.748567 0.103268
437 2 0.215954 0.636724 0.00698787
311 1 0.314618 0.672067 0.0591555
314 1 0.371738 0.677932 0.178756
369 1 0.47467 0.672892 0.083156
254 1 0.428327 0.557326 0.19487
464 2 0.366261 0.582278 0.0295608
78 1 0.295376 0.537016 0.132023
49 1 0.475095 0.551439 0.0233526
279 1 0.533427 0.706889 0.204874
470 2 0.541882 0.563595 0.243963
185 1 0.562561 0.560092 0.123258
296 1 0.650521 0.625253 0.196848
69 1 0.608638 0.667724 0.0525095
220 1 0.696028 0.53997 0.0687338
412 2 0.834773 0.60002 0.20576
203 1 0.793536 0.627705 0.10519
108 1 0.93577 0.684037 0.107857
468 2 0.893151 0.579733 0.0923601
327 1 0.898805 0.717561 0.239064
32 1 0.772631 0.679638 0.2417
350 1 0.957979 0.596186 0.243016
13 1 0.10566 0.801437 0.182181
251 1 0.0430237 0.864118 0.0675822
236 1 0.151972 0.939999 0.155008
467 2 0.0364833 0.888048 0.180308
451 2 0.246112 0.903478 0.0894177
191 1 0.282481 0.799456 0.0929203
321 1 0.353602 0.914798 0.0353511
284 1 0.419309 0.788447 0.114797
118 1 0.312621 0.862717 0.240039
328 1 0.492274 0.902686 0.0729898
42 1 0.674828 0.761252 0.173871
337 1 0.564677 0.845738 0.211194
283 1 0.617547 0.835184 0.0673446
282 1 0.611265 0.988232 0.0957745
374 1 0.697731 0.902423 0.191107
294 1 0.746853 0.75192 0.0466037
349 1 0.714324 0.91028 0.0227265
338 1 0.512115 0.777599 0.00418398
68 1 0.943912 0.959013 0.0513392
249 1 0.811094 0.78429 0.160025
70 1 0.820629 0.913752 0.107738
367 1 0.95698 0.812815 0.165751
299 1 0.941417 0.952971 0.194762
277 1 0.889683 0.826269 0.0342352
428 2 0.2228 0.646625 0.490127
23 1 0.135278 0.544337 0.457707
105 1 0.0145327 0.729957 0.303341
8 1 0.157266 0.708523 0.292819
363 1 0.0718775 0.614138 0.353848
301 1 0.22594 0.635783 0.379124
281 1 0.125122 0.720393 0.432657
120 1 0.00989252 0.602548 0.483034
73 1 0.225741 0.509696 0.353012
147 1 0.277299 0.533473 0.490887
276 1 0.467171 0.522077 0.326861
399 2 0.33576 0.566425 0.373256
148 1 0.448397 0.589676 0.448222
366 1 0.274267 0.594993 0.253552
44 1 0.392673 0.639616 0.316067
98 1 0.323423 0.686145 0.444915
263 1 0.301086 0.742649 0.285816
359 1 0.457949 0.728659 0.415245
175 1 0.625846 0.522448 0.393215
427 2 0.544499 0.666047 0.47091
168 1 0.648758 0.649049 0.428014
122 1 0.542108 0.635701 0.332854
258 1 0.714684 0.569211 0.307799
330 1 0.653614 0.718509 0.297624
375 1 0.897307 0.744101 0.390534
355 1 0.753136 0.542525 0.444703
188 1 0.837634 0.525783 0.305807
127 1 0.921739 0.605509 0.368272
308 1 0.796287 0.650379 0.379659
466 2 0.751508 0.642285 0.495576
79 1 0.136647 0.990639 0.27938
449 2 0.103385 0.799272 0.357247
376 1 0.118341 0.938992 0.433948
126 1 0.174163 0.854768 0.283596
134 1 0.0167025 0.840058 0.422237
58 1 0.234865 0.798691 0.398573
67 1 0.0272926 0.872377 0.297657
357 1 0.00448558 0.966552 0.495479
386 2 0.463174 0.836309 0.468941
372 1 0.340735 0.999772 0.272621
335 1 0.432804 0.767304 0.284844
94 1 0.273333 0.945391 0.374242
324 1 0.454775 0.915623 0.250592
121 1 0.365572 0.826016 0.395616
385 2 0.398778 0.916339 0.344295
104 1 0.397586 0.951054 0.474358
405 2 0.700881 0.957004 0.293861
322 1 0.572332 0.785189 0.455133
421 2 0.547183 0.753975 0.326247
445 2 0.556405 0.929939 0.285584
361 1 0.511302 0.867727 0.37412
344 1 0.747624 0.908439 0.404937
47 1 0.718214 0.765032 0.428208
163 1 0.64716 0.852863 0.348939
346 1 0.614577 0.986175 0.375799
149 1 0.644446 0.913953 0.493307
110 1 0.889999 0.901929 0.37164
268 1 0.806434 0.935297 0.269368
440 2 0.827566 0.824054 0.417122
275 1 0.771152 0.809325 0.291986
400 2 0.816222 0.996857 0.367502
289 1 0.0906772 0.60956 0.699205
99 1 0.125449 0.655358 0.557844
135 1 0.24354 0.645519 0.614841
26 1 0.190246 0.521051 0.667642
172 1 0.22731 0.749457 0.523317
187 1 0.0563574 0.535482 0.594767
446 2 0.0582056 0.731091 0.606292
423 2 0.0949401 0.737875 0.747571
410 2 0.173679 0.550012 0.560831
472 2 0.359045 0.575429 0.663173
273 1 0.446533 0.524153 0.721808
285 1 0.342751 0.664876 0.733517
435 2 0.445996 0.691904 0.646513
192 1 0.372087 0.646709 0.569998
439 2 0.486268 0.597265 0.587259
413 2 0.286193 0.732622 0.667957
247 1 0.496153 0.715927 0.554364
194 1 0.422157 0.505378 0.561792
377 1 0.571737 0.668377 0.651967
362 1 0.66383 0.714526 0.542205
408 2 0.659526 0.586376 0.671769
197 1 0.692186 0.681208 0.740262
96 1 0.600533 0.590946 0.544784
234 1 0.973382 0.722623 0.735946
186 1 0.752622 0.516698 0.591763
302 1 0.834575 0.733539 0.518135
157 1 0.768442 0.665335 0.61543
365 1 0.957481 0.65758 0.613874
248 1 0.75185 0.550853 0.729452
232 1 0.882907 0.528743 0.623177
261 1 0.8611 0.630325 0.722046
402 2 0.87608 0.523307 0.74686
133 1 0.983401 0.748971 0.51207
432 2 0.990126 0.505135 0.677048
199 1 0.862416 0.596623 0.501578
10 1 0.0506931 0.989655 0.648772
169 1 0.160698 0.757514 0.660615
166 1 0.0905185 0.858365 0.726518
189 1 0.174998 0.919934 0.640073
390 2 0.214005 0.833459 0.717203
201 1 0.115752 0.838282 0.527863
401 2 0.134346 0.98852 0.552354
381 1 0.245336 0.894558 0.50445
195 1 0.372586 0.793245 0.533781
360 1 0.285537 0.837747 0.62419
291 1 0.447538 0.808242 0.665262
394 2 0.38667 0.904358 0.592226
205 1 0.293348 0.986643 0.602255
229 1 0.34648 0.943994 0.725817
160 1 0.48471 0.995247 0.703033
478 2 0.701887 0.758843 0.641846
326 1 0.734688 0.826059 0.553547
447 2 0.532823 0.88352 0.689587
204 1 0.615589 0.988138 0.671957
217 1 0.666277 0.851382 0.697969
379 1 0.588143 0.803763 0.606226
89 1 0.508263 0.917163 0.574896
419 2 0.663585 0.910014 0.606624
119 1 0.913641 0.970177 0.621752
198 1 0.843078 0.771253 0.649807
208 1 0.992508 0.821499 0.637686
155 1 0.793588 0.903335 0.666971
364 1 0.760672 0.983941 0.543666
129 1 0.902274 0.866053 0.530008
244 1 0.07898 0.510253 0.866145
9 1 0.229595 0.531116 0.99237
452 2 0.156477 0.557178 0.795626
339 1 0.106402 0.625673 0.963766
5 1 0.0742375 0.638921 0.83392
267 1 0.215617 0.60981 0.883003
103 1 0.195117 0.656112 0.757342
25 1 0.233532 0.732347 0.948739
422 2 0.112421 0.738103 0.919768
227 1 0.0142696 0.742639 0.991035
475 2 0.328442 0.505789 0.924778
316 1 0.352575 0.624277 0.92179
442 2 0.279837 0.71069 0.837173
352 1 0.481506 0.678161 0.757011
345 1 0.485378 0.667215 0.940841
63 1 0.411531 0.748631 0.857441
320 1 0.317819 0.533507 0.80265
270 1 0.518038 0.577139 0.840936
12 1 0.596449 0.555606 0.964421
37 1 0.681745 0.567187 0.852392
342 1 0.59741 0.524303 0.750441
265 1 0.593842 0.681048 0.839481
443 2 0.601464 0.677314 0.944286
274 1 0.7189 0.642168 0.969392
429 2 0.856417 0.738056 0.798714
309 1 0.855965 0.684593 0.979792
7 1 0.975611 0.572093 0.763544
212 1 0.760387 0.709419 0.849556
305 1 0.830091 0.588003 0.84431
43 1 0.968999 0.582258 0.964872
152 1 0.935696 0.67858 0.854471
325 1 0.822069 0.541125 0.994159
278 1 0.0272596 0.784983 0.843555
28 1 0.147754 0.979977 0.891015
202 1 0.0234548 0.962236 0.810504
52 1 0.169944 0.787569 0.830534
348 1 0.0728659 0.867869 0.936589
209 1 0.213141 0.935555 0.776743
158 1 0.187405 0.858459 0.996415
241 1 0.251082 0.993022 0.983564
80 1 0.383659 0.757126 0.989109
307 1 0.309239 0.81051 0.771363
159 1 0.433028 0.868304 0.780429
162 1 0.285047 0.878349 0.883051
313 1 0.439759 0.881801 0.927583
465 2 0.376239 0.953505 0.887195
370 1 0.559269 0.78124 0.752136
414 2 0.68252 0.959367 0.756149
480 2 0.504023 0.957658 0.895612
16 1 0.589714 0.92012 0.968297
167 1 0.678134 0.891269 0.866335
156 1 0.561168 0.925079 0.795077
347 1 0.663216 0.76852 0.941329
450 2 0.668801 0.773768 0.823595
53 1 0.554804 0.81311 0.875898
434 2 0.732278 0.974625 0.924272
426 2 0.927295 0.781314 0.920044
17 1 0.806203 0.825604 0.907714
297 1 0.938698 0.895717 0.889177
259 1 0.768326 0.806814 0.761809
280 1 0.90132 0.838692 0.760699
474 2 0.902371 0.9588 0.769896
218 1 0.831621 0.957357 0.968029
131 1 0.798214 0.936388 0.81726
ITEM: TIMESTEP
50000
ITEM: NUMBER OF ATOMS
480
ITEM: BOX BOUNDS pp pp pp
0.0000000000000000e+00 7.3680629972807701e+00
0.0000000000000000e+00 7.3680629972807701e+00
0.0000000000000000e+00 7.3680629972807701e+00
ITEM: ATOMS id type xs ys zs
62 1 0.195155 0.0787009 0.164387
76 1 0.128601 0.193895 0.228588
425 2 0.994453 0.2598 0.0406322
15 1 0.121074 0.221529 0.0754799
125 1 0.00819669 0.244836 0.146903
219 1 0.0487196 0.118479 0.136134
202 1 0.140491 0.0664887 0.0051327
372 1 0.238165 0.258146 0.168819
321 1 0.339441 0.17622 0.186981
386 2 0.416597 0.059017 0.133563
30 1 0.390448 0.163661 0.0552642
128 1 0.466966 0.24355 0.17763
422 2 0.0344085 0.0330566 0.0431588
319 1 0.308446 0.0334369 0.0767287
480 2 0.565261 0.222164 0.0476718
106 1 0.620876 0.182 0.156431
263 1 0.513859 0.116332 0.110408
215 1 0.648428 0.0762373 0.0774016
175 1 0.651981 0.484473 0.360531
400 2 0.955971 0.192749 0.491939
109 1 0.780971 0.0524878 0.113207
97 1 0.762986 0.181541 0.126829
165 1 0.903228 0.179128 0.0694226
268 1 0.944052 0.0203677 0.10077
367 1 0.99872 0.0297612 0.232014
395 2 0.864309 0.0226732 0.189275
124 1 0.898802 0.137213 0.200855
146 1 0.0932653 0.456909 0.292307
200 1 0.11713 0.332674 0.193194
266 1 0.0725044 0.365006 0.0699724
2 1 0.102059 0.46697 0.157029
245 1 0.225468 0.386919 0.120689
418 2 0.0555496 0.265567 0.287202
392 2 0.196492 0.487937 0.0789237
351 1 0.933566 0.344464 0.0674736
304 1 0.353209 0.311595 0.127543
419 2 0.416021 0.126088 0.438218
83 1 0.413826 0.426635 0.0797137
82 1 0.355532 0.412955 0.213012
46 1 0.290731 0.411182 0.00122442
23 1 0.00374361 0.373536 0.348891
470 2 0.448499 0.361313 0.168656
450 2 0.841137 0.500777 0.148049
355 1 0.74979 0.26089 0.413891
130 1 0.475203 0.291505 0.0484322
434 2 0.536055 0.288631 0.253144
207 1 0.600352 0.472429 0.0466543
233 1 0.682414 0.351341 0.0429487
353 1 0.571845 0.346927 0.158863
403 2 0.569093 0.357602 0.0447458
111 1 0.861062 0.267213 0.162481
323 1 0.811693 0.390007 0.105187
101 1 0.00038311 0.379578 0.212718
36 1 0.85194 0.395217 0.22659
92 1 0.0831695 0.356898 0.468522
24 1 0.718712 0.299222 0.177587
476 2 0.211136 0.496631 0.191286
72 1 0.123687 0.069602 0.323527
417 2 0.223021 0.0801884 0.399509
180 1 0.171384 0.187135 0.382755
121 1 0.256826 0.140214 0.289457
94 1 0.0602226 0.108849 0.452958
88 1 0.019586 0.153475 0.286264
31 1 0.395943 0.201354 0.316466
332 1 0.313872 0.145455 0.407758
459 2 0.366027 0.0784994 0.324404
56 1 0.379115 0.276791 0.434637
257 1 0.495406 0.0745542 0.370609
399 2 0.272803 0.2628 0.457695
393 2 0.554994 0.115604 0.24447
346 1 0.443206 0.100837 0.232623
248 1 0.622192 0.2082 0.438006
61 1 0.702338 0.0877769 0.234618
123 1 0.71413 0.149382 0.360318
388 2 0.620789 0.0552028 0.329844
300 1 0.255684 0.158904 0.0357871
455 2 0.791648 0.0855454 0.423404
447 2 0.529573 0.0135413 0.461779
286 1 0.780434 0.20643 0.261791
150 1 0.837309 0.0749171 0.315986
38 1 0.98237 0.0415124 0.367746
143 1 0.956556 0.471385 0.112437
249 1 0.885513 0.183607 0.386053
211 1 0.927011 0.276916 0.274622
255 1 0.0252301 0.241503 0.400112
99 1 0.349507 0.502822 0.395669
45 1 0.141148 0.306522 0.330611
433 2 0.125482 0.452209 0.412837
329 1 0.224262 0.399218 0.25689
115 1 0.220681 0.359424 0.427934
116 1 0.589904 0.484133 0.229465
213 1 0.279639 0.289388 0.32204
377 1 0.514184 0.315001 0.436328
477 2 0.303822 0.399253 0.340292
463 2 0.328131 0.387727 0.460355
102 1 0.42278 0.341638 0.327971
75 1 0.531032 0.207587 0.330932
316 1 0.462836 0.0143635 0.0446605
113 1 0.634604 0.0663274 0.450122
20 1 0.653279 0.352707 0.439717
100 1 0.704216 0.400654 0.268905
384 1 0.711748 0.471587 0.139893
27 1 0.890188 0.106146 0.49491
341 1 0.577386 0.37481 0.316463
373 1 0.649284 0.25499 0.295452
81 1 0.772177 0.405677 0.39435
376 1 0.903194 0.34366 0.430072
466 2 0.806782 0.324715 0.310509
50 1 0.892716 0.458884 0.344659
68 1 0.815441 0.280292 0.0211697
429 2 0.886813 0.4534 0.000805757
368 1 0.319441 0.0294166 0.230617
246 1 0.682233 0.214661 0.0225688
326 1 0.698386 0.48727 0.496327
84 1 0.0153854 0.486591 0.434381
337 1 0.583409 0.0175633 0.227871
276 1 0.46146 0.476181 0.272515
354 1 0.243729 0.481501 0.502822
6 1 0.217202 0.294577 0.0213946
134 1 0.0992461 0.0883139 0.701138
173 1 0.190817 0.187752 0.641689
138 1 0.27975 0.0771865 0.65075
391 2 0.978456 0.0780136 0.573477
320 1 0.562943 0.449716 0.500706
430 2 0.238751 0.277285 0.614135
33 1 0.489657 0.394383 0.949618
252 1 0.975864 0.0220039 0.677726
90 1 0.0593241 0.172342 0.600254
242 1 0.372522 0.167623 0.647774
295 1 0.428736 0.0383122 0.676874
11 1 0.342618 0.0532551 0.511182
401 2 0.422395 0.0974506 0.57241
140 1 0.312064 0.197219 0.533364
473 2 0.599455 0.0430093 0.567667
149 1 0.579081 0.0303687 0.693119
187 1 0.282552 0.494135 0.769104
179 1 0.506033 0.152687 0.638092
153 1 0.651995 0.121937 0.617981
453 2 0.76285 0.215293 0.602932
216 1 0.534609 0.121063 0.975485
35 1 0.602516 0.144835 0.764803
71 1 0.510421 0.124625 0.506142
333 1 0.809687 0.18295 0.711134
214 1 0.725901 0.0639217 0.726656
57 1 0.919731 0.161325 0.618334
298 1 0.802723 0.0897974 0.614823
288 1 0.85866 0.0492257 0.74787
290 1 0.856321 0.237611 0.514706
358 1 0.117684 0.487159 0.5262
264 1 0.180707 0.373323 0.575639
411 2 0.0854396 0.309175 0.577189
380 1 0.0679226 0.411533 0.664854
221 1 0.215033 0.0957495 0.513501
222 1 0.290776 0.247999 0.730929
112 1 0.024901 0.283734 0.682397
41 1 0.275548 0.395434 0.67311
10 1 0.159405 0.308087 0.704079
250 1 0.0414614 0.36706 0.801741
428 2 0.392115 0.404782 0.654926
139 1 0.449909 0.250744 0.549415
54 1 0.32716 0.329907 0.569136
342 1 0.502246 0.435755 0.643679
441 2 0.384025 0.27729 0.648374
181 1 0.39434 0.351484 0.746944
206 1 0.50183 0.297014 0.670545
378 1 0.3396 0.490142 0.608976
472 2 0.527151 0.338651 0.56106
273 1 0.649614 0.403574 0.608
408 2 0.742811 0.33565 0.651084
382 1 0.685319 0.231485 0.687227
186 1 0.605413 0.248051 0.562797
448 2 0.616681 0.308772 0.659879
275 1 0.734574 0.309916 0.543765
18 1 0.803786 0.426927 0.685739
260 1 0.977645 0.295323 0.542831
223 1 0.94171 0.39891 0.699877
34 1 0.858351 0.298324 0.63703
190 1 0.824798 0.42233 0.550394
93 1 0.892348 0.360019 0.931401
178 1 0.209055 0.13164 0.793147
170 1 0.141862 0.180801 0.935261
144 1 0.0975924 0.0756583 0.846856
479 2 0.0142193 0.174031 0.877198
406 2 0.210757 0.098426 0.912281
224 1 0.77194 0.424182 0.962033
174 1 0.00837691 0.154778 0.989846
59 1 0.0881094 0.197538 0.776778
444 2 0.925808 0.0842863 0.996124
229 1 0.362915 0.10829 0.793068
356 1 0.341464 0.0629006 0.938276
193 1 0.286865 0.193564 0.899261
77 1 0.427145 0.156655 0.910462
312 1 0.453835 0.210695 0.757692
457 2 0.859089 0.332347 0.747348
269 1 0.788554 0.272547 0.832958
60 1 0.566797 0.280778 0.946402
394 2 0.535009 0.192006 0.869968
237 1 0.652617 0.176753 0.892975
48 1 0.697252 0.0522978 0.946744
66 1 0.500767 0.0736272 0.813828
155 1 0.80581 0.127289 0.996462
256 1 0.577614 0.278544 0.80957
141 1 0.938425 0.278046 0.807266
240 1 0.354731 0.284548 0.993897
469 2 0.75339 0.224433 0.933343
217 1 0.784239 -0.00145541 0.852856
184 1 0.773913 0.135543 0.845275
132 1 0.914166 0.0924988 0.888949
21 1 0.964249 0.134896 0.756251
424 2 0.870093 0.179313 0.817352
142 1 0.897768 0.223428 0.936613
287 1 0.247163 0.432314 0.877686
243 1 0.178771 0.280892 0.838196
415 2 0.225037 0.366481 0.76551
171 1 0.146595 0.389597 0.941925
86 1 0.144911 0.444444 0.791799
305 1 0.594085 0.489456 0.891508
29 1 0.390546 0.468329 0.864715
336 1 0.0143834 0.429618 0.963432
225 1 0.178359 0.252448 0.525102
460 2 0.364646 0.225711 0.818918
14 1 0.441163 0.290335 0.882559
270 1 0.316181 0.323548 0.858695
74 1 0.971683 0.428582 0.55653
461 2 0.64882 0.41266 0.961473
136 1 0.25454 0.0161638 0.837726
197 1 0.511923 0.430445 0.792655
4 1 0.690566 0.353898 0.749464
151 1 0.726327 0.476959 0.849984
458 2 0.613302 0.405536 0.828838
231 1 0.682812 0.322888 0.896779
239 1 0.640296 0.491251 0.743947
244 1 0.880688 0.446383 0.824771
91 1 0.0450684 0.280973 0.916284
65 1 -0.00272281 0.0023793 0.937195
271 1 0.731398 0.149472 0.510414
313 1 0.637662 0.00935282 0.831383
357 1 0.0862871 0.031128 0.578539
238 1 0.763201 0.0132952 0.512539
96 1 0.428543 0.402856 0.531113
177 1 0.0753192 0.675239 0.0784473
361 1 0.441902 0.951637 0.174145
8 1 0.145615 0.708757 0.201891
203 1 0.0516177 0.604447 0.207108
363 1 0.998017 0.767215 0.213179
303 1 0.179554 0.597771 0.126319
98 1 0.175769 0.595946 0.261809
442 2 0.184169 0.721396 0.0665188
78 1 0.29027 0.665381 0.208632
421 2 0.322109 0.77598 0.242756
42 1 0.396042 0.721258 0.154959
443 2 0.378211 0.611287 0.148098
87 1 0.42286 0.642017 0.0520948
258 1 0.780947 0.509264 0.273016
80 1 0.287271 0.681955 0.0676999
89 1 0.51278 0.748679 0.0584675
306 1 0.519357 0.669641 0.173147
148 1 0.499258 0.525799 0.137678
274 1 0.644061 0.601967 0.174305
438 2 0.628578 0.717776 0.0179314
167 1 0.727878 0.664119 0.078752
299 1 0.11712 0.931258 0.00334228
107 1 0.755759 0.885867 0.447923
325 1 0.585421 0.620688 0.055906
5 1 0.300969 0.529359 0.105767
131 1 0.755057 0.727141 0.197278
294 1 0.803572 0.60975 0.175979
265 1 0.810955 0.549752 0.0485975
436 2 0.838757 0.703404 0.121771
105 1 0.928876 0.626167 0.124414
236 1 0.958057 0.815286 0.346357
475 2 0.021887 0.57342 0.10312
188 1 0.930505 0.536857 0.23106
85 1 0.712663 0.991898 0.360102
253 1 0.219427 0.926825 0.0940213
9 1 0.0978918 0.826022 0.0923774
409 2 0.678043 0.991727 0.154697
118 1 0.143205 0.863542 0.21453
226 1 0.105872 0.534484 0.0112568
296 1 0.246169 0.792446 0.144131
117 1 0.861721 0.983738 0.416955
335 1 0.373321 0.85045 0.10881
471 2 0.305004 0.905288 0.173481
322 1 0.418069 0.846229 0.25019
137 1 0.822278 0.769985 0.381054
53 1 0.646673 0.842591 0.0315443
328 1 0.590175 0.950718 0.0854319
279 1 0.539861 0.846019 0.149833
12 1 0.6364 0.751154 0.124096
17 1 0.697485 0.865481 0.167087
251 1 0.0824225 0.970798 0.134973
317 1 0.983802 0.899328 0.0306375
70 1 0.974996 0.89789 0.181239
349 1 0.854096 0.926665 0.127073
218 1 0.783709 0.801868 0.0686467
277 1 0.850039 0.831183 0.22713
32 1 0.926509 0.766686 0.0976127
254 1 0.307603 0.526688 0.271442
28 1 0.253344 0.808527 0.0189057
464 2 0.160849 0.620859 0.405735
301 1 0.0641941 0.637022 0.351949
449 2 0.0830105 0.731318 0.422968
176 1 0.189548 0.722451 0.464752
440 2 0.514345 0.629721 0.463352
67 1 0.0991741 0.779391 0.306584
369 1 0.502104 0.876429 0.00439028
79 1 0.0815173 0.620721 0.478824
281 1 0.2681 0.654577 0.350915
307 1 0.417337 0.634358 0.26873
58 1 0.408015 0.629808 0.409295
390 2 0.330698 0.721025 0.444736
383 1 0.209846 0.517656 0.370252
210 1 0.254308 0.945496 0.511996
468 2 0.665924 0.567927 0.284573
414 2 0.698254 0.603105 0.499807
359 1 0.513486 0.712413 0.361301
309 1 0.558126 0.596614 0.295631
293 1 0.88559 0.852501 0.46615
168 1 0.638803 0.614944 0.396422
283 1 0.630321 0.720985 0.268645
40 1 0.752011 0.657 0.31833
362 1 0.712028 0.727679 0.449423
456 2 0.978473 0.70539 0.305632
327 1 0.87587 0.692502 0.26295
412 2 0.890253 0.496155 0.473855
310 1 0.914103 0.591579 0.381905
344 1 0.828375 0.666318 0.459246
308 1 0.783912 0.548044 0.412722
334 1 0.970492 0.700016 0.427499
371 1 0.200992 0.975756 0.263271
396 2 0.00198864 0.538312 0.323068
404 2 0.214541 0.755228 0.338147
385 2 0.961179 0.913205 0.396568
189 1 0.0503546 0.841064 0.446091
147 1 0.193036 0.853807 0.401703
13 1 0.0600932 0.926902 0.32705
194 1 0.488655 0.517076 0.402084
324 1 0.276246 0.866926 0.284444
427 2 0.468811 0.744755 0.243806
195 1 0.366247 0.748003 0.341671
445 2 0.363762 0.883076 0.357573
114 1 0.426629 0.969387 0.308336
205 1 0.461706 0.853885 0.38053
133 1 0.349056 0.841833 0.467154
44 1 0.306413 0.985003 0.381928
360 1 0.437669 0.731096 0.480846
314 1 0.730061 0.947878 0.0579008
282 1 0.725587 0.847023 0.305942
196 1 0.912474 0.945516 0.298176
347 1 0.558279 0.850649 0.291689
3 1 0.60947 0.818568 0.419655
55 1 0.572096 0.962937 0.378597
420 2 0.652472 0.933393 0.287676
19 1 0.0111451 0.975177 0.478726
331 1 0.763115 0.964539 0.230844
405 2 0.841036 0.871237 0.343935
104 1 0.426801 0.963965 0.453844
381 1 0.142324 0.985004 0.439207
350 1 0.856736 0.67798 0.0166436
120 1 0.147719 0.653312 0.628934
43 1 0.911523 0.659731 0.671791
439 2 0.125327 0.769556 0.571763
51 1 0.190227 0.515748 0.652627
259 1 0.69733 0.53174 0.978758
454 2 0.106612 0.539152 0.756636
435 2 0.270979 0.542273 0.877523
339 1 0.0628395 0.654781 0.746931
432 2 0.214671 0.649868 0.72747
280 1 -0.0111059 0.981776 0.803405
145 1 0.339823 0.688219 0.561668
26 1 0.413518 0.671689 0.720596
370 1 0.297521 0.606008 0.657553
199 1 0.280359 0.73667 0.687977
228 1 -0.000304521 0.73354 0.974048
285 1 0.491927 0.675286 0.608094
413 2 0.41638 0.594769 0.630475
291 1 0.408613 0.504434 0.730373
230 1 0.451308 0.547598 0.532357
374 1 0.595356 0.578856 0.543279
410 2 0.65401 0.621913 0.717612
379 1 0.527613 0.57081 0.694968
37 1 0.699488 0.556147 0.631046
247 1 0.617529 0.718077 0.65488
437 2 0.158177 0.509553 0.896276
1 1 0.599212 0.868611 0.893389
387 2 0.811131 0.603237 0.643132
157 1 0.809725 0.557013 0.542373
232 1 0.733304 0.684268 0.581744
198 1 0.758441 0.670956 0.720458
110 1 0.889368 0.757205 0.583741
16 1 0.516537 0.99272 0.915944
474 2 0.152736 0.993277 0.759851
162 1 0.0696544 0.917074 0.675158
201 1 0.0203106 0.723715 0.571993
365 1 0.160489 0.802879 0.6733
261 1 0.206366 0.962925 0.644011
208 1 0.997316 0.87154 0.570187
169 1 0.217939 0.904965 0.764424
47 1 0.594305 0.714507 0.514071
172 1 0.255097 0.798818 0.558956
478 2 0.266419 0.868869 0.663246
63 1 0.357198 0.942717 0.608982
192 1 0.391701 0.807217 0.600012
209 1 0.331544 0.984631 0.734466
407 2 0.455017 0.897663 0.642786
267 1 0.490434 0.928779 0.752088
156 1 0.360723 0.84902 0.752325
397 2 0.622988 0.956293 0.976758
160 1 0.577257 0.903593 0.646248
163 1 0.678235 0.817526 0.545292
183 1 0.695082 0.977932 0.625874
302 1 0.718575 0.800625 0.684454
352 1 0.495727 0.781225 0.70689
159 1 0.516661 0.85943 0.521051
108 1 0.859161 0.971146 0.967863
127 1 0.00301074 0.792596 0.688446
446 2 0.810286 0.979245 0.646861
129 1 0.794384 0.877005 0.588746
343 1 0.774122 0.926551 0.736107
330 1 0.911929 0.896434 0.675979