ITEM: TIMESTEP
0
ITEM: NUMBER OF ATOMS
480
ITEM: BOX BOUNDS pp pp pp
0.0000000000000000e+00 7.3680629972807701e+00
0.0000000000000000e+00 7.3680629972807701e+00
0.0000000000000000e+00 7.3680629972807701e+00
ITEM: ATOMS id type xs ys zs
1 1 0 0 0
2 1 0.10137 0.10137 0
3 1 0.10137 0 0.10137
4 1 0 0.10137 0.10137
5 1 0.20274 0 0
8 1 0.20274 0.10137 0.10137
21 1 0 0.20274 0
23 1 0.10137 0.20274 0.10137
25 1 0.20274 0.20274 0
51 1 0 0 0.20274
52 1 0.10137 0.10137 0.20274
55 1 0.20274 0 0.20274
71 1 0 0.20274 0.20274
75 1 0.20274 0.20274 0.20274
6 1 0.30411 0.10137 0
7 1 0.30411 0 0.10137
9 1 0.40548 0 0
12 1 0.40548 0.10137 0.10137
27 1 0.30411 0.20274 0.10137
29 1 0.40548 0.20274 0
56 1 0.30411 0.10137 0.20274
59 1 0.40548 0 0.20274
79 1 0.40548 0.20274 0.20274
10 1 0.50685 0.10137 0
11 1 0.50685 0 0.10137
13 1 0.60822 0 0
14 1 0.70959 0.10137 0
15 1 0.70959 0 0.10137
16 1 0.60822 0.10137 0.10137
31 1 0.50685 0.20274 0.10137
33 1 0.60822 0.20274 0
35 1 0.70959 0.20274 0.10137
60 1 0.50685 0.10137 0.20274
63 1 0.60822 0 0.20274
64 1 0.70959 0.10137 0.20274
83 1 0.60822 0.20274 0.20274
17 1 0.81096 0 0
18 1 0.91233 0.10137 0
19 1 0.91233 0 0.10137
20 1 0.81096 0.10137 0.10137
37 1 0.81096 0.20274 0
39 1 0.91233 0.20274 0.10137
67 1 0.81096 0 0.20274
68 1 0.91233 0.10137 0.20274
87 1 0.81096 0.20274 0.20274
22 1 0.10137 0.30411 0
24 1 0 0.30411 0.10137
28 1 0.20274 0.30411 0.10137
41 1 0 0.40548 0
42 1 0.10137 0.40548 0.10137
43 1 0.20274 0.40548 0
72 1 0.10137 0.30411 0.20274
91 1 0 0.40548 0.20274
93 1 0.20274 0.40548 0.20274
26 1 0.30411 0.30411 0
32 1 0.40548 0.30411 0.10137
44 1 0.30411 0.40548 0.10137
45 1 0.40548 0.40548 0
76 1 0.30411 0.30411 0.20274
95 1 0.40548 0.40548 0.20274
30 1 0.50685 0.30411 0
34 1 0.70959 0.30411 0
36 1 0.60822 0.30411 0.10137
46 1 0.50685 0.40548 0.10137
47 1 0.60822 0.40548 0
48 1 0.70959 0.40548 0.10137
80 1 0.50685 0.30411 0.20274
84 1 0.70959 0.30411 0.20274
97 1 0.60822 0.40548 0.20274
38 1 0.91233 0.30411 0
40 1 0.81096 0.30411 0.10137
49 1 0.81096 0.40548 0
50 1 0.91233 0.40548 0.10137
88 1 0.91233 0.30411 0.20274
99 1 0.81096 0.40548 0.20274
53 1 0.10137 0 0.30411
54 1 0 0.10137 0.30411
58 1 0.20274 0.10137 0.30411
73 1 0.10137 0.20274 0.30411
101 1 0 0 0.40548
102 1 0.10137 0.10137 0.40548
103 1 0.20274 0 0.40548
111 1 0 0.20274 0.40548
113 1 0.20274 0.20274 0.40548
57 1 0.30411 0 0.30411
62 1 0.40548 0.10137 0.30411
77 1 0.30411 0.20274 0.30411
104 1 0.30411 0.10137 0.40548
105 1 0.40548 0 0.40548
115 1 0.40548 0.20274 0.40548
61 1 0.50685 0 0.30411
65 1 0.70959 0 0.30411
66 1 0.60822 0.10137 0.30411
81 1 0.50685 0.20274 0.30411
85 1 0.70959 0.20274 0.30411
106 1 0.50685 0.10137 0.40548
107 1 0.60822 0 0.40548
108 1 0.70959 0.10137 0.40548
117 1 0.60822 0.20274 0.40548
69 1 0.91233 0 0.30411
70 1 0.81096 0.10137 0.30411
89 1 0.91233 0.20274 0.30411
109 1 0.81096 0 0.40548
110 1 0.91233 0.10137 0.40548
119 1 0.81096 0.20274 0.40548
74 1 0 0.30411 0.30411
78 1 0.20274 0.30411 0.30411
92 1 0.10137 0.40548 0.30411
112 1 0.10137 0.30411 0.40548
121 1 0 0.40548 0.40548
122 1 0.20274 0.40548 0.40548
82 1 0.40548 0.30411 0.30411
94 1 0.30411 0.40548 0.30411
114 1 0.30411 0.30411 0.40548
123 1 0.40548 0.40548 0.40548
86 1 0.60822 0.30411 0.30411
96 1 0.50685 0.40548 0.30411
98 1 0.70959 0.40548 0.30411
116 1 0.50685 0.30411 0.40548
118 1 0.70959 0.30411 0.40548
124 1 0.60822 0.40548 0.40548
90 1 0.81096 0.30411 0.30411
100 1 0.91233 0.40548 0.30411
120 1 0.91233 0.30411 0.40548
125 1 0.81096 0.40548 0.40548
126 1 0.10137 0 0.50685
127 1 0 0.10137 0.50685
129 1 0.20274 0.10137 0.50685
136 1 0.10137 0.20274 0.50685
151 1 0 0 0.60822
152 1 0.10137 0.10137 0.60822
153 1 0.10137 0 0.70959
154 1 0 0.10137 0.70959
155 1 0.20274 0 0.60822
158 1 0.20274 0.10137 0.70959
171 1 0 0.20274 0.60822
173 1 0.10137 0.20274 0.70959
175 1 0.20274 0.20274 0.60822
128 1 0.30411 0 0.50685
131 1 0.40548 0.10137 0.50685
138 1 0.30411 0.20274 0.50685
156 1 0.30411 0.10137 0.60822
157 1 0.30411 0 0.70959
159 1 0.40548 0 0.60822
162 1 0.40548 0.10137 0.70959
177 1 0.30411 0.20274 0.70959
179 1 0.40548 0.20274 0.60822
130 1 0.50685 0 0.50685
132 1 0.70959 0 0.50685
133 1 0.60822 0.10137 0.50685
140 1 0.50685 0.20274 0.50685
142 1 0.70959 0.20274 0.50685
160 1 0.50685 0.10137 0.60822
161 1 0.50685 0 0.70959
163 1 0.60822 0 0.60822
164 1 0.70959 0.10137 0.60822
165 1 0.70959 0 0.70959
166 1 0.60822 0.10137 0.70959
181 1 0.50685 0.20274 0.70959
183 1 0.60822 0.20274 0.60822
185 1 0.70959 0.20274 0.70959
134 1 0.91233 0 0.50685
135 1 0.81096 0.10137 0.50685
144 1 0.91233 0.20274 0.50685
167 1 0.81096 0 0.60822
168 1 0.91233 0.10137 0.60822
169 1 0.91233 0 0.70959
170 1 0.81096 0.10137 0.70959
187 1 0.81096 0.20274 0.60822
189 1 0.91233 0.20274 0.70959
137 1 0 0.30411 0.50685
139 1 0.20274 0.30411 0.50685
146 1 0.10137 0.40548 0.50685
172 1 0.10137 0.30411 0.60822
174 1 0 0.30411 0.70959
178 1 0.20274 0.30411 0.70959
191 1 0 0.40548 0.60822
192 1 0.10137 0.40548 0.70959
193 1 0.20274 0.40548 0.60822
141 1 0.40548 0.30411 0.50685
147 1 0.30411 0.40548 0.50685
176 1 0.30411 0.30411 0.60822
182 1 0.40548 0.30411 0.70959
194 1 0.30411 0.40548 0.70959
195 1 0.40548 0.40548 0.60822
143 1 0.60822 0.30411 0.50685
148 1 0.50685 0.40548 0.50685
149 1 0.70959 0.40548 0.50685
180 1 0.50685 0.30411 0.60822
184 1 0.70959 0.30411 0.60822
186 1 0.60822 0.30411 0.70959
196 1 0.50685 0.40548 0.70959
197 1 0.60822 0.40548 0.60822
198 1 0.70959 0.40548 0.70959
145 1 0.81096 0.30411 0.50685
150 1 0.91233 0.40548 0.50685
188 1 0.91233 0.30411 0.60822
190 1 0.81096 0.30411 0.70959
199 1 0.81096 0.40548 0.60822
200 1 0.91233 0.40548 0.70959
201 1 0 0 0.81096
202 1 0.10137 0.10137 0.81096
203 1 0.10137 0 0.91233
204 1 0 0.10137 0.91233
205 1 0.20274 0 0.81096
208 1 0.20274 0.10137 0.91233
221 1 0 0.20274 0.81096
223 1 0.10137 0.20274 0.91233
225 1 0.20274 0.20274 0.81096
206 1 0.30411 0.10137 0.81096
207 1 0.30411 0 0.91233
209 1 0.40548 0 0.81096
212 1 0.40548 0.10137 0.91233
227 1 0.30411 0.20274 0.91233
229 1 0.40548 0.20274 0.81096
210 1 0.50685 0.10137 0.81096
211 1 0.50685 0 0.91233
213 1 0.60822 0 0.81096
214 1 0.70959 0.10137 0.81096
215 1 0.70959 0 0.91233
216 1 0.60822 0.10137 0.91233
231 1 0.50685 0.20274 0.91233
233 1 0.60822 0.20274 0.81096
235 1 0.70959 0.20274 0.91233
217 1 0.81096 0 0.81096
218 1 0.91233 0.10137 0.81096
219 1 0.91233 0 0.91233
220 1 0.81096 0.10137 0.91233
237 1 0.81096 0.20274 0.81096
239 1 0.91233 0.20274 0.91233
222 1 0.10137 0.30411 0.81096
224 1 0 0.30411 0.91233
228 1 0.20274 0.30411 0.91233
241 1 0 0.40548 0.81096
242 1 0.10137 0.40548 0.91233
243 1 0.20274 0.40548 0.81096
226 1 0.30411 0.30411 0.81096
232 1 0.40548 0.30411 0.91233
244 1 0.30411 0.40548 0.91233
245 1 0.40548 0.40548 0.81096
230 1 0.50685 0.30411 0.81096
234 1 0.70959 0.30411 0.81096
236 1 0.60822 0.30411 0.91233
246 1 0.50685 0.40548 0.91233
247 1 0.60822 0.40548 0.81096
248 1 0.70959 0.40548 0.91233
238 1 0.91233 0.30411 0.81096
240 1 0.81096 0.30411 0.91233
249 1 0.81096 0.40548 0.81096
250 1 0.91233 0.40548 0.91233
251 1 0.10137 0.50685 0
252 1 0 0.50685 0.10137
254 1 0.20274 0.50685 0.10137
261 1 0 0.60822 0
262 1 0.10137 0.70959 0
263 1 0.10137 0.60822 0.10137
264 1 0 0.70959 0.10137
265 1 0.20274 0.60822 0
268 1 0.20274 0.70959 0.10137
301 1 0.10137 0.50685 0.20274
311 1 0 0.60822 0.20274
312 1 0.10137 0.70959 0.20274
315 1 0.20274 0.60822 0.20274
253 1 0.30411 0.50685 0
256 1 0.40548 0.50685 0.10137
266 1 0.30411 0.70959 0
267 1 0.30411 0.60822 0.10137
269 1 0.40548 0.60822 0
272 1 0.40548 0.70959 0.10137
303 1 0.30411 0.50685 0.20274
316 1 0.30411 0.70959 0.20274
319 1 0.40548 0.60822 0.20274
255 1 0.50685 0.50685 0
257 1 0.70959 0.50685 0
258 1 0.60822 0.50685 0.10137
270 1 0.50685 0.70959 0
271 1 0.50685 0.60822 0.10137
273 1 0.60822 0.60822 0
274 1 0.70959 0.70959 0
275 1 0.70959 0.60822 0.10137
276 1 0.60822 0.70959 0.10137
305 1 0.50685 0.50685 0.20274
307 1 0.70959 0.50685 0.20274
320 1 0.50685 0.70959 0.20274
323 1 0.60822 0.60822 0.20274
324 1 0.70959 0.70959 0.20274
259 1 0.91233 0.50685 0
260 1 0.81096 0.50685 0.10137
277 1 0.81096 0.60822 0
278 1 0.91233 0.70959 0
279 1 0.91233 0.60822 0.10137
280 1 0.81096 0.70959 0.10137
309 1 0.91233 0.50685 0.20274
327 1 0.81096 0.60822 0.20274
328 1 0.91233 0.70959 0.20274
281 1 0 0.81096 0
282 1 0.10137 0.91233 0
283 1 0.10137 0.81096 0.10137
284 1 0 0.91233 0.10137
285 1 0.20274 0.81096 0
288 1 0.20274 0.91233 0.10137
331 1 0 0.81096 0.20274
332 1 0.10137 0.91233 0.20274
335 1 0.20274 0.81096 0.20274
286 1 0.30411 0.91233 0
287 1 0.30411 0.81096 0.10137
289 1 0.40548 0.81096 0
292 1 0.40548 0.91233 0.10137
336 1 0.30411 0.91233 0.20274
339 1 0.40548 0.81096 0.20274
290 1 0.50685 0.91233 0
291 1 0.50685 0.81096 0.10137
293 1 0.60822 0.81096 0
294 1 0.70959 0.91233 0
295 1 0.70959 0.81096 0.10137
296 1 0.60822 0.91233 0.10137
340 1 0.50685 0.91233 0.20274
343 1 0.60822 0.81096 0.20274
344 1 0.70959 0.91233 0.20274
297 1 0.81096 0.81096 0
298 1 0.91233 0.91233 0
299 1 0.91233 0.81096 0.10137
300 1 0.81096 0.91233 0.10137
347 1 0.81096 0.81096 0.20274
348 1 0.91233 0.91233 0.20274
302 1 0 0.50685 0.30411
304 1 0.20274 0.50685 0.30411
313 1 0.10137 0.60822 0.30411
314 1 0 0.70959 0.30411
318 1 0.20274 0.70959 0.30411
351 1 0.10137 0.50685 0.40548
356 1 0 0.60822 0.40548
357 1 0.10137 0.70959 0.40548
358 1 0.20274 0.60822 0.40548
306 1 0.40548 0.50685 0.30411
317 1 0.30411 0.60822 0.30411
322 1 0.40548 0.70959 0.30411
352 1 0.30411 0.50685 0.40548
359 1 0.30411 0.70959 0.40548
360 1 0.40548 0.60822 0.40548
308 1 0.60822 0.50685 0.30411
321 1 0.50685 0.60822 0.30411
325 1 0.70959 0.60822 0.30411
326 1 0.60822 0.70959 0.30411
353 1 0.50685 0.50685 0.40548
354 1 0.70959 0.50685 0.40548
361 1 0.50685 0.70959 0.40548
362 1 0.60822 0.60822 0.40548
363 1 0.70959 0.70959 0.40548
310 1 0.81096 0.50685 0.30411
329 1 0.91233 0.60822 0.30411
330 1 0.81096 0.70959 0.30411
355 1 0.91233 0.50685 0.40548
364 1 0.81096 0.60822 0.40548
365 1 0.91233 0.70959 0.40548
333 1 0.10137 0.81096 0.30411
334 1 0 0.91233 0.30411
338 1 0.20274 0.91233 0.30411
366 1 0 0.81096 0.40548
367 1 0.10137 0.91233 0.40548
368 1 0.20274 0.81096 0.40548
337 1 0.30411 0.81096 0.30411
342 1 0.40548 0.91233 0.30411
369 1 0.30411 0.91233 0.40548
370 1 0.40548 0.81096 0.40548
341 1 0.50685 0.81096 0.30411
345 1 0.70959 0.81096 0.30411
346 1 0.60822 0.91233 0.30411
371 1 0.50685 0.91233 0.40548
372 1 0.60822 0.81096 0.40548
373 1 0.70959 0.91233 0.40548
349 1 0.91233 0.81096 0.30411
350 1 0.81096 0.91233 0.30411
374 1 0.81096 0.81096 0.40548
375 1 0.91233 0.91233 0.40548
376 1 0 0.50685 0.50685
377 1 0.20274 0.50685 0.50685
381 1 0.10137 0.60822 0.50685
382 1 0 0.70959 0.50685
384 1 0.20274 0.70959 0.50685
401 2 0.10137 0.50685 0.60822
402 2 0 0.50685 0.70959
404 2 0.20274 0.50685 0.70959
411 2 0 0.60822 0.60822
412 2 0.10137 0.70959 0.60822
413 2 0.10137 0.60822 0.70959
414 2 0 0.70959 0.70959
415 2 0.20274 0.60822 0.60822
418 2 0.20274 0.70959 0.70959
378 1 0.40548 0.50685 0.50685
383 1 0.30411 0.60822 0.50685
386 2 0.40548 0.70959 0.50685
403 2 0.30411 0.50685 0.60822
406 2 0.40548 0.50685 0.70959
416 2 0.30411 0.70959 0.60822
417 2 0.30411 0.60822 0.70959
419 2 0.40548 0.60822 0.60822
422 2 0.40548 0.70959 0.70959
379 1 0.60822 0.50685 0.50685
385 2 0.50685 0.60822 0.50685
387 2 0.70959 0.60822 0.50685
388 2 0.60822 0.70959 0.50685
405 2 0.50685 0.50685 0.60822
407 2 0.70959 0.50685 0.60822
408 2 0.60822 0.50685 0.70959
420 2 0.50685 0.70959 0.60822
421 2 0.50685 0.60822 0.70959
423 2 0.60822 0.60822 0.60822
424 2 0.70959 0.70959 0.60822
425 2 0.70959 0.60822 0.70959
426 2 0.60822 0.70959 0.70959
380 1 0.81096 0.50685 0.50685
389 2 0.91233 0.60822 0.50685
390 2 0.81096 0.70959 0.50685
409 2 0.91233 0.50685 0.60822
410 2 0.81096 0.50685 0.70959
427 2 0.81096 0.60822 0.60822
428 2 0.91233 0.70959 0.60822
429 2 0.91233 0.60822 0.70959
430 2 0.81096 0.70959 0.70959
391 2 0.10137 0.81096 0.50685
392 2 0 0.91233 0.50685
394 2 0.20274 0.91233 0.50685
431 2 0 0.81096 0.60822
432 2 0.10137 0.91233 0.60822
433 2 0.10137 0.81096 0.70959
434 2 0 0.91233 0.70959
435 2 0.20274 0.81096 0.60822
438 2 0.20274 0.91233 0.70959
393 2 0.30411 0.81096 0.50685
396 2 0.40548 0.91233 0.50685
436 2 0.30411 0.91233 0.60822
437 2 0.30411 0.81096 0.70959
439 2 0.40548 0.81096 0.60822
442 2 0.40548 0.91233 0.70959
395 2 0.50685 0.81096 0.50685
397 2 0.70959 0.81096 0.50685
398 2 0.60822 0.91233 0.50685
440 2 0.50685 0.91233 0.60822
441 2 0.50685 0.81096 0.70959
443 2 0.60822 0.81096 0.60822
444 2 0.70959 0.91233 0.60822
445 2 0.70959 0.81096 0.70959
446 2 0.60822 0.91233 0.70959
399 2 0.91233 0.81096 0.50685
400 2 0.81096 0.91233 0.50685
447 2 0.81096 0.81096 0.60822
448 2 0.91233 0.91233 0.60822
449 2 0.91233 0.81096 0.70959
450 2 0.81096 0.91233 0.70959
451 2 0.10137 0.50685 0.81096
452 2 0 0.50685 0.91233
454 2 0.20274 0.50685 0.91233
461 2 0 0.60822 0.81096
462 2 0.10137 0.70959 0.81096
463 2 0.10137 0.60822 0.91233
464 2 0 0.70959 0.91233
465 2 0.20274 0.60822 0.81096
468 2 0.20274 0.70959 0.91233
453 2 0.30411 0.50685 0.81096
456 2 0.40548 0.50685 0.91233
466 2 0.30411 0.70959 0.81096
467 2 0.30411 0.60822 0.91233
469 2 0.40548 0.60822 0.81096
472 2 0.40548 0.70959 0.91233
455 2 0.50685 0.50685 0.81096
457 2 0.70959 0.50685 0.81096
458 2 0.60822 0.50685 0.91233
470 2 0.50685 0.70959 0.81096
471 2 0.50685 0.60822 0.91233
473 2 0.60822 0.60822 0.81096
474 2 0.70959 0.70959 0.81096
475 2 0.70959 0.60822 0.91233
476 2 0.60822 0.70959 0.91233
459 2 0.91233 0.50685 0.81096
460 2 0.81096 0.50685 0.91233
477 2 0.81096 0.60822 0.81096
478 2 0.91233 0.70959 0.81096
479 2 0.91233 0.60822 0.91233
480 2 0.81096 0.70959 0.91233
ITEM: TIMESTEP
10000
ITEM: NUMBER OF ATOMS
480
ITEM: BOX BOUNDS pp pp pp
0.0000000000000000e+00 7.3680629972807701e+00
0.0000000000000000e+00 7.3680629972807701e+00
0.0000000000000000e+00 7.3680629972807701e+00
ITEM: ATOMS id type xs ys zs
8 1 0.194383 0.125737 0.0672606
23 1 0.0882166 0.196251 0.0737731
52 1 0.158731 0.0894401 0.20142
71 1 0.0466437 0.192509 0.209959
75 1 0.187542 0.235524 0.171418
3 1 0.066468 0.057474 0.0919618
12 1 0.391838 0.0924403 0.102414
27 1 0.293802 0.212874 0.093119
56 1 0.296979 0.12366 0.189866
79 1 0.389511 0.220315 0.202304
31 1 0.487065 0.227695 0.103388
60 1 0.488116 0.12094 0.194683
7 1 0.277996 0.0188763 0.110398
16 1 0.58377 0.119208 0.0838853
35 1 0.718901 0.214352 0.100794
64 1 0.705474 0.0973084 0.187884
83 1 0.605718 0.21486 0.207329
63 1 0.594627 0.0223272 0.197274
14 1 0.726143 0.103681 0.015854
4 1 0.957063 0.134966 0.0415132
20 1 0.815868 0.0848389 0.113179
39 1 0.945968 0.247354 0.129739
68 1 0.940185 0.104778 0.175765
87 1 0.829022 0.207152 0.184326
37 1 0.835025 0.217453 0.030571
43 1 0.170582 0.451474 0.0309311
28 1 0.218261 0.323661 0.0664609
42 1 0.0663716 0.484891 0.135415
72 1 0.0750894 0.329148 0.174129
93 1 0.184427 0.418192 0.169807
22 1 0.0728839 0.335469 0.0390516
41 1 0.00489192 0.461833 0.0160478
32 1 0.387056 0.322378 0.0867361
44 1 0.310476 0.429457 0.0795781
76 1 0.290786 0.319817 0.196395
95 1 0.395112 0.424255 0.192514
80 1 0.498646 0.326797 0.207296
36 1 0.632732 0.316466 0.10586
46 1 0.510972 0.424682 0.0952955
48 1 0.716957 0.431601 0.106738
84 1 0.726963 0.327613 0.200794
97 1 0.590122 0.418585 0.206705
24 1 0.950734 0.387659 0.118255
40 1 0.820376 0.342786 0.100907
99 1 0.817459 0.434337 0.218675
309 1 0.957926 0.488247 0.219885
88 1 0.943178 0.352101 0.247131
394 2 0.22678 0.028973 0.442254
113 1 0.230461 0.159451 0.437331
102 1 0.113767 0.0697432 0.415151
54 1 0.0462175 0.0703523 0.283907
73 1 0.136146 0.17176 0.309887
111 1 0.0340392 0.190315 0.406266
58 1 0.240034 0.0671965 0.3283
77 1 0.281018 0.216523 0.300217
115 1 0.376659 0.205639 0.405155
62 1 0.394743 0.101487 0.305324
104 1 0.334854 0.0496601 0.435781
106 1 0.490919 0.110409 0.416181
81 1 0.488132 0.209552 0.303877
107 1 0.612661 0.0188334 0.407553
400 2 0.745986 0.0184694 0.462678
65 1 0.720826 0.0179381 0.306312
61 1 0.502778 0.00372676 0.302287
117 1 0.581197 0.208132 0.415193
108 1 0.694473 0.120653 0.423241
85 1 0.725793 0.194272 0.284945
66 1 0.612799 0.113985 0.306161
144 1 0.929332 0.183529 0.493945
89 1 0.92369 0.207478 0.279591
70 1 0.832822 0.0921335 0.269458
110 1 0.937958 0.0842112 0.371789
119 1 0.836294 0.174398 0.388154
135 1 0.859347 0.0624002 0.49004
91 1 0.0648128 0.428169 0.272822
78 1 0.181369 0.31911 0.286794
112 1 0.141214 0.287692 0.419181
121 1 0.0359976 0.393365 0.424953
74 1 0.0466583 0.285634 0.311448
92 1 0.16252 0.418442 0.37945
82 1 0.394292 0.332021 0.300121
94 1 0.283697 0.419129 0.289615
114 1 0.283966 0.327606 0.396236
123 1 0.391219 0.427084 0.418207
116 1 0.48294 0.304228 0.405177
141 1 0.374632 0.302262 0.49812
96 1 0.520751 0.420086 0.323909
98 1 0.702371 0.421742 0.307386
124 1 0.606598 0.389547 0.421872
118 1 0.72589 0.258307 0.406531
86 1 0.618142 0.301001 0.307369
90 1 0.813073 0.307242 0.309845
120 1 0.931752 0.293133 0.398373
100 1 0.927312 0.443933 0.345971
125 1 0.793383 0.403341 0.410835
150 1 0.91173 0.39274 0.497882
129 1 0.206124 0.065631 0.550747
152 1 0.0698811 0.0596518 0.66111
158 1 0.198078 0.059884 0.72525
173 1 0.0777112 0.181666 0.739999
175 1 0.201927 0.179955 0.644567
136 1 0.115252 0.178404 0.531787
171 1 0.000482242 0.190356 0.613736
127 1 0.00965817 0.0654277 0.517939
131 1 0.444849 0.0351253 0.551293
138 1 0.3327 0.152702 0.535251
156 1 0.318348 0.0411714 0.646733
177 1 0.318911 0.171828 0.735689
179 1 0.443153 0.148958 0.647249
140 1 0.472543 0.200214 0.520087
160 1 0.496966 0.0137152 0.675671
142 1 0.738111 0.105638 0.553368
164 1 0.640068 0.0620352 0.649535
183 1 0.56551 0.199662 0.637975
185 1 0.722366 0.1947 0.685745
133 1 0.575155 0.081803 0.529201
184 1 0.677985 0.237103 0.550824
210 1 0.534705 0.120973 0.7477
202 1 0.933409 0.12603 0.708217
154 1 0.933109 0.0144335 0.610489
187 1 0.841192 0.171091 0.595911
218 1 0.805425 0.0643564 0.679548
146 1 0.152037 0.382286 0.531937
172 1 0.106753 0.281052 0.628459
178 1 0.220699 0.289936 0.725972
191 1 0.0222868 0.394218 0.596283
193 1 0.13492 0.425766 0.683309
174 1 0.00373921 0.31764 0.71496
139 1 0.240663 0.275878 0.544897
137 1 0.025575 0.284132 0.506547
401 2 0.101435 0.486904 0.582795
122 1 0.292009 0.431258 0.50748
147 1 0.271107 0.382727 0.645253
176 1 0.354463 0.263453 0.632544
196 1 0.453979 0.4575 0.654393
148 1 0.467554 0.407757 0.529978
403 2 0.372276 0.381735 0.58862
180 1 0.473294 0.314795 0.641428
404 2 0.329348 0.490171 0.625929
182 1 0.36585 0.367629 0.738543
195 1 0.291251 0.494372 0.730972
149 1 0.702822 0.365107 0.525112
186 1 0.640307 0.311745 0.663895
197 1 0.593843 0.458218 0.573509
407 2 0.700036 0.413793 0.652246
408 2 0.561364 0.400046 0.678553
143 1 0.565277 0.31227 0.533337
387 2 0.703454 0.490602 0.558045
189 1 0.868677 0.257924 0.747938
409 2 0.923027 0.478877 0.587537
188 1 0.912954 0.304227 0.612696
190 1 0.783954 0.33364 0.650711
199 1 0.810086 0.450295 0.56598
200 1 0.891181 0.423976 0.697656
145 1 0.816085 0.283556 0.515051
410 2 0.781633 0.419255 0.742508
402 2 0.99861 0.465331 0.698443
424 2 0.81883 0.499791 0.667735
2 1 0.0635415 0.103231 0.961589
208 1 0.103522 0.0664496 0.828032
225 1 0.186745 0.200844 0.830784
25 1 0.196088 0.0712838 0.942219
223 1 0.0853171 0.237321 0.927054
227 1 0.235032 0.221502 0.96828
181 1 0.431619 0.248701 0.755755
162 1 0.388982 0.0436943 0.759473
206 1 0.279331 0.0881249 0.838111
229 1 0.40523 0.148837 0.854884
6 1 0.327716 0.107895 0.980105
212 1 0.47226 0.0325718 0.885409
29 1 0.371148 0.237058 0.953129
10 1 0.474452 0.129774 0.997672
233 1 0.637506 0.217816 0.784832
33 1 0.619408 0.221089 0.986188
13 1 0.603104 0.0146397 0.970963
215 1 0.73209 0.00737363 0.877889
214 1 0.693853 0.0953878 0.779805
216 1 0.590557 0.120159 0.875824
231 1 0.517905 0.232525 0.873638
235 1 0.719595 0.192189 0.899331
201 1 0.968556 0.00919163 0.760103
219 1 0.866713 0.0100444 0.849579
204 1 0.971729 0.109499 0.862702
220 1 0.833644 0.145463 0.809108
18 1 0.84424 0.111988 0.942794
1 1 0.951437 0.0162486 0.972635
454 2 0.214636 0.485557 0.917704
241 1 0.030509 0.427953 0.797414
224 1 0.0230738 0.363846 0.911574
243 1 0.193368 0.434251 0.814952
228 1 0.16623 0.347816 0.929975
222 1 0.108286 0.316418 0.802921
26 1 0.303747 0.369929 0.949026
421 2 0.45488 0.431726 0.802928
245 1 0.354918 0.465217 0.847615
232 1 0.421816 0.338179 0.877141
226 1 0.309237 0.271922 0.826759
45 1 0.429513 0.430542 0.991509
237 1 0.745189 0.314029 0.791799
30 1 0.523762 0.331819 0.990911
246 1 0.524533 0.435293 0.897006
230 1 0.536781 0.352019 0.785809
236 1 0.634191 0.342433 0.883625
234 1 0.653573 0.426421 0.758458
34 1 0.731142 0.312077 0.984842
47 1 0.637696 0.427519 0.993646
221 1 0.971097 0.259515 0.840777
239 1 0.83041 0.271298 0.902138
461 2 0.991243 0.473784 0.893171
38 1 0.878111 0.398495 0.970958
238 1 0.897028 0.379601 0.83406
240 1 0.759205 0.42803 0.869805
21 1 0.957544 0.264164 0.993157
459 2 0.903394 0.496146 0.793006
254 1 0.167853 0.563489 0.135753
263 1 0.186514 0.697441 0.0805782
312 1 0.168448 0.677675 0.236228
299 1 0.063898 0.722696 0.162281
311 1 0.0554246 0.592065 0.23704
463 2 0.0611128 0.692585 0.042347
456 2 0.248224 0.530685 0.0669925
251 1 0.082012 0.576344 0.0254606
267 1 0.327729 0.625978 0.0897787
256 1 0.416436 0.529139 0.0860186
316 1 0.304648 0.745364 0.162755
319 1 0.410006 0.635311 0.223426
303 1 0.293289 0.533269 0.184692
339 1 0.425225 0.730747 0.0517714
320 1 0.510473 0.638105 0.119292
305 1 0.509909 0.536712 0.213729
258 1 0.612817 0.547881 0.0999358
307 1 0.700847 0.528258 0.209215
323 1 0.609996 0.637688 0.225541
275 1 0.731343 0.690247 0.191003
276 1 0.626589 0.698499 0.0461193
471 2 0.526177 0.669406 0.00220928
475 2 0.753277 0.704728 0.0428034
260 1 0.763313 0.592138 0.0976842
252 1 0.972352 0.621221 0.112338
279 1 0.847302 0.717558 0.107796
327 1 0.857173 0.600714 0.200853
349 1 0.945938 0.725538 0.227024
259 1 0.880218 0.615205 0.00974229
50 1 0.8789 0.505817 0.0934942
283 1 0.106408 0.815153 0.0628284
288 1 0.242416 0.823138 0.0440269
332 1 0.169574 0.934539 0.106456
335 1 0.189327 0.818074 0.190763
331 1 0.0494116 0.832993 0.247885
51 1 0.0314862 0.964956 0.185395
55 1 0.246018 0.937595 0.237644
284 1 0.00165813 0.910032 0.0468294
322 1 0.427671 0.786022 0.189138
292 1 0.453638 0.871596 0.0724835
336 1 0.331595 0.889969 0.140459
59 1 0.416639 0.98719 0.188473
9 1 0.386992 0.97784 0.0169394
343 1 0.625285 0.773435 0.172701
340 1 0.530691 0.899008 0.183854
324 1 0.720871 0.812573 0.0682341
296 1 0.588053 0.881573 0.0549659
344 1 0.674586 0.901856 0.211153
15 1 0.686378 0.975397 0.0791752
11 1 0.509522 0.999847 0.0786133
347 1 0.802526 0.835114 0.171762
328 1 0.973774 0.767077 0.0647475
300 1 0.871787 0.856455 0.0538946
348 1 0.936115 0.855863 0.17356
67 1 0.790385 0.972648 0.181381
19 1 0.912957 0.987669 0.108741
301 1 0.180615 0.521304 0.278111
313 1 0.158202 0.632542 0.36744
314 1 0.0562677 0.714759 0.3395
357 1 0.116835 0.737785 0.458615
302 1 0.0631739 0.517769 0.372289
412 2 0.0742357 0.600064 0.455647
351 1 0.16385 0.514808 0.469677
315 1 0.285914 0.619291 0.291745
304 1 0.28305 0.533749 0.403307
306 1 0.408679 0.519552 0.310768
317 1 0.388871 0.618573 0.418407
353 1 0.491547 0.511744 0.433184
337 1 0.393404 0.721266 0.334264
318 1 0.271856 0.705526 0.405309
395 2 0.491014 0.694875 0.427499
360 1 0.388564 0.744663 0.485883
321 1 0.500053 0.619597 0.333981
308 1 0.608569 0.532957 0.316489
325 1 0.711539 0.620372 0.353598
326 1 0.595333 0.621463 0.441744
354 1 0.741761 0.522046 0.457993
385 2 0.60914 0.503722 0.475203
363 1 0.703192 0.678243 0.499228
356 1 0.96637 0.630292 0.45814
355 1 0.88297 0.51996 0.449576
365 1 0.8271 0.646262 0.439636
310 1 0.805374 0.523404 0.313242
329 1 0.9383 0.60662 0.319606
399 2 0.921346 0.713159 0.383327
330 1 0.820281 0.710107 0.306052
101 1 0.00818047 0.965489 0.379784
53 1 0.132238 0.960143 0.297946
367 1 0.0985978 0.86605 0.397674
333 1 0.178974 0.782256 0.338647
103 1 0.232474 0.932829 0.383072
392 2 0.0494354 0.971108 0.486941
368 1 0.236964 0.823317 0.464756
338 1 0.31006 0.825312 0.290021
57 1 0.353953 0.964654 0.32012
369 1 0.365844 0.873302 0.426275
342 1 0.447642 0.865342 0.292841
105 1 0.47306 0.959536 0.431746
371 1 0.493694 0.818545 0.421614
398 2 0.599819 0.902851 0.457625
345 1 0.697834 0.777266 0.30612
346 1 0.591355 0.8932 0.338519
341 1 0.535933 0.752628 0.281934
373 1 0.711013 0.889378 0.407682
372 1 0.605187 0.75111 0.40481
397 2 0.722169 0.776719 0.442904
334 1 0.937969 0.842467 0.338525
134 1 0.932134 0.91065 0.48135
350 1 0.800346 0.872796 0.29841
69 1 0.921018 0.981072 0.266187
109 1 0.826421 0.984604 0.387696
375 1 0.842569 0.792491 0.439952
366 1 0.989874 0.771878 0.465442
381 1 0.1064 0.618789 0.562785
413 2 0.035499 0.691867 0.527727
415 2 0.181602 0.540571 0.710879
192 1 0.0778318 0.550155 0.681713
414 2 0.0926074 0.668149 0.672648
377 1 0.218229 0.513505 0.604609
416 2 0.214522 0.631393 0.611012
358 1 0.246132 0.617566 0.500749
429 2 0.00959548 0.623171 0.745671
468 2 0.202637 0.658435 0.728306
376 1 0.0143014 0.505437 0.513256
378 1 0.474853 0.589611 0.659299
383 1 0.31591 0.629828 0.662336
419 2 0.407142 0.671158 0.70362
362 1 0.472651 0.657113 0.5355
352 1 0.393403 0.52093 0.533588
386 2 0.349798 0.638409 0.548332
406 2 0.398621 0.530841 0.730518
359 1 0.265386 0.742676 0.574018
439 2 0.384864 0.74349 0.61356
405 2 0.505058 0.548127 0.555987
379 1 0.605944 0.606658 0.585723
420 2 0.526378 0.682274 0.630055
423 2 0.627734 0.626485 0.696693
473 2 0.57742 0.516289 0.668279
445 2 0.719079 0.62331 0.616439
198 1 0.704303 0.526901 0.667344
293 1 0.675805 0.729278 0.703686
388 2 0.587834 0.705027 0.518111
411 2 0.982092 0.594715 0.584925
427 2 0.753383 0.643755 0.746041
389 2 0.898636 0.675976 0.545774
390 2 0.853479 0.647152 0.654267
382 1 0.96303 0.701106 0.639566
380 1 0.927148 0.562254 0.684478
364 1 0.819127 0.588845 0.562025
374 1 0.830414 0.747815 0.613357
126 1 0.156051 0.947522 0.503504
384 1 0.104179 0.758823 0.607281
418 2 0.118066 0.842974 0.672628
432 2 0.177263 0.8389 0.567637
435 2 0.201849 0.754732 0.660508
153 1 0.0936742 0.937347 0.744411
155 1 0.206121 0.937233 0.635668
391 2 0.0570035 0.849071 0.506132
281 1 0.0274128 0.789403 0.737958
431 2 0.0113103 0.81532 0.624303
151 1 0.031701 0.926147 0.592338
128 1 0.289298 0.940457 0.530395
396 2 0.448319 0.880146 0.51016
436 2 0.273193 0.850548 0.659184
442 2 0.394192 0.842458 0.722234
157 1 0.324298 0.76063 0.706632
159 1 0.385051 0.904436 0.623946
393 2 0.33588 0.83059 0.537333
361 1 0.480468 0.760347 0.718542
209 1 0.314125 0.92128 0.739163
370 1 0.48812 0.792781 0.572857
440 2 0.494688 0.883568 0.658666
447 2 0.71734 0.756806 0.591483
132 1 0.670273 0.971726 0.529949
443 2 0.590114 0.802471 0.640807
446 2 0.610425 0.944057 0.672861
163 1 0.626571 0.816364 0.522128
166 1 0.681874 0.870108 0.648093
130 1 0.543163 0.931641 0.56519
213 1 0.581805 0.854104 0.74718
444 2 0.710868 0.833888 0.748953
165 1 0.802071 0.753167 0.746767
170 1 0.752304 0.944705 0.736785
428 2 0.907269 0.792348 0.695911
426 2 0.859309 0.969486 0.695744
167 1 0.764702 0.857676 0.526052
169 1 0.905545 0.876288 0.631276
448 2 0.921349 0.791206 0.556453
449 2 0.986828 0.901547 0.708435
450 2 0.790471 0.85206 0.657027
168 1 0.807238 0.967242 0.582354
242 1 0.100454 0.501593 0.904145
451 2 0.106402 0.528273 0.794956
265 1 0.113704 0.653875 0.801115
268 1 0.132108 0.730023 0.95638
467 2 0.210853 0.698685 0.872444
464 2 0.104672 0.616056 0.921734
194 1 0.226649 0.571738 0.828638
253 1 0.20479 0.592514 0.967842
262 1 0.0046782 0.578624 0.843822
465 2 0.0572849 0.733674 0.851658
287 1 0.293036 0.712277 0.980659
244 1 0.319591 0.516549 0.978188
417 2 0.320764 0.609625 0.774684
271 1 0.421926 0.62797 0.953375
269 1 0.416494 0.59192 0.823302
453 2 0.303009 0.61314 0.920784
455 2 0.427024 0.522884 0.920499
266 1 0.312232 0.703037 0.835266
466 2 0.430374 0.703564 0.807674
472 2 0.420164 0.745743 0.927726
469 2 0.514431 0.625303 0.757105
247 1 0.531621 0.505377 0.765621
270 1 0.526694 0.689953 0.871112
257 1 0.688687 0.605161 0.981866
458 2 0.524797 0.567206 0.862067
425 2 0.72246 0.735383 0.82169
457 2 0.674646 0.547038 0.778627
474 2 0.629754 0.709996 0.922573
470 2 0.582346 0.7441 0.767635
273 1 0.651637 0.643929 0.83377
274 1 0.731877 0.744563 0.93923
248 1 0.628312 0.513723 0.874592
255 1 0.530054 0.555352 0.985331
250 1 0.885052 0.513309 0.904165
460 2 0.755626 0.541742 0.890158
280 1 0.866774 0.745313 0.965356
452 2 0.991778 0.567051 0.967153
479 2 0.91341 0.631597 0.894319
277 1 0.80294 0.65121 0.866327
478 2 0.873736 0.606627 0.78944
278 1 0.942305 0.709199 0.808577
261 1 0.990504 0.689771 0.954181
249 1 0.79408 0.5279 0.778991
49 1 0.76423 0.503093 0.992406
438 2 0.206841 0.935054 0.753946
434 2 0.0978121 0.844246 0.826068
462 2 0.146436 0.863119 0.966997
264 1 0.0318376 0.825243 0.937056
282 1 0.105129 0.971293 0.983453
205 1 0.172993 0.931738 0.862539
285 1 0.186067 0.772755 0.772098
203 1 0.0190062 0.942532 0.868176
286 1 0.230922 0.808267 0.896016
5 1 0.247301 0.946062 0.979993
272 1 0.357214 0.834282 0.974374
161 1 0.452788 0.926782 0.776792
437 2 0.275546 0.834826 0.799143
289 1 0.383299 0.82244 0.846816
422 2 0.448211 0.904726 0.955339
207 1 0.347513 0.950621 0.891824
476 2 0.637203 0.801988 0.993734
430 2 0.646538 0.916752 0.841177
291 1 0.520152 0.795452 0.962385
441 2 0.506033 0.805041 0.84223
295 1 0.681312 0.897807 0.9524
290 1 0.548352 0.911048 0.88729
294 1 0.631058 0.803567 0.853876
211 1 0.584577 0.993868 0.780057
17 1 0.805542 0.969378 0.99855
433 2 0.972863 0.818338 0.836765
298 1 0.902938 0.882272 0.923243
480 2 0.78773 0.849929 0.967428
297 1 0.76653 0.859652 0.847963
217 1 0.889876 0.874875 0.764415
477 2 0.857152 0.778041 0.853268
