ITEM: TIMESTEP
0
ITEM: NUMBER OF ATOMS
480
ITEM: BOX BOUNDS pp pp pp
0.0000000000000000e+00 7.3680629972807701e+00
0.0000000000000000e+00 7.3680629972807701e+00
0.0000000000000000e+00 7.3680629972807701e+00
ITEM: ATOMS id type xs ys zs
111 1 0.11994 0.139755 0.0635396
89 1 0.154014 0.147505 0.210891
334 1 0.218321 0.227387 0.12004
172 1 0.226271 0.0626917 0.119598
227 1 0.0405267 0.229411 0.206705
41 1 0.071559 0.043625 0.14958
237 1 0.00315645 0.0720647 0.00555976
462 2 0.262498 0.0843964 0.227017
270 1 0.430091 0.0927692 0.0930795
104 1 0.337403 0.160092 0.169491
425 2 0.337047 0.0146883 0.071538
62 1 0.49574 0.127213 0.243221
217 1 0.454115 0.237773 0.136383
307 1 0.306195 0.135726 0.0327536
200 1 0.341107 0.0163121 0.183647
359 1 0.548715 0.191008 0.0282882
376 1 0.594567 0.213755 0.174611
250 1 0.718293 0.0950264 0.143564
235 1 0.569753 0.0665093 0.137479
181 1 0.706772 0.215188 0.0510091
221 1 0.726922 0.225486 0.187164
67 1 0.653202 0.0036369 0.0478406
335 1 0.969952 0.154197 0.12762
176 1 0.844539 0.0637295 0.202732
351 1 0.835832 0.169217 0.110388
421 2 0.967605 0.0217927 0.192349
15 1 0.882063 0.0260099 0.0708334
336 1 0.772747 0.0877337 0.0152774
153 1 0.125079 0.473229 0.128151
105 1 0.056172 0.275625 0.0772827
323 1 0.131409 0.340828 0.198726
159 1 0.17901 0.354188 0.0546545
177 1 0.0365998 0.413017 0.0379399
60 1 0.242712 0.413302 0.179736
474 2 0.0801579 0.448704 0.229792
416 2 0.303363 0.323334 0.133528
70 1 0.311935 0.273999 0.0248817
184 1 0.391117 0.371156 0.214258
348 1 0.280651 0.285302 0.240938
72 1 0.299907 0.415629 0.049193
29 1 0.430225 0.359987 0.0707339
14 1 0.48793 0.490428 0.248143
193 1 0.535088 0.446897 0.10086
94 1 0.673003 0.360362 0.187309
374 1 0.531653 0.35485 0.20795
201 1 0.666439 0.457481 0.0621325
215 1 0.606573 0.316592 0.0788535
446 2 0.502535 0.297258 0.022405
445 2 0.830398 0.318013 0.1524
53 1 0.995467 0.369196 0.168632
168 1 0.90612 0.284571 0.228579
3 1 0.758636 0.351596 0.0709788
12 1 0.89826 0.402041 0.0711744
219 1 0.792612 0.457869 0.146363
354 1 0.913868 0.277327 0.0727354
458 2 0.885706 0.412763 0.195237
424 2 0.111049 0.0524241 0.436386
73 1 0.0418875 0.164101 0.416629
361 1 0.179646 0.074667 0.347542
452 2 0.0797832 0.165221 0.293323
69 1 0.183979 0.19437 0.447404
31 1 0.0363661 0.0600646 0.298739
253 1 0.403681 0.242255 0.289285
48 1 0.44726 0.00832203 0.298448
352 1 0.291735 0.152318 0.301878
407 2 0.3923 0.107549 0.275391
439 2 0.451632 0.0397081 0.413224
251 1 0.404718 0.137115 0.386977
403 2 0.272256 0.0897831 0.41748
326 1 0.312653 0.020334 0.341746
204 1 0.318792 0.165366 0.491179
299 1 0.34879 0.0316512 0.488668
302 1 0.614912 0.0723311 0.477483
284 1 0.546997 0.123546 0.373516
419 2 0.61054 0.227423 0.399451
4 1 0.64429 0.122858 0.278319
162 1 0.706632 0.144816 0.406326
440 2 0.646091 0.0428351 0.368721
47 1 0.723546 0.00983788 0.266195
258 1 0.919909 0.104591 0.481971
442 2 0.755937 0.125377 0.254353
412 2 0.932883 0.0866035 0.367838
38 1 0.809212 0.225078 0.304018
178 1 0.932735 0.159571 0.272712
80 1 0.81671 0.221596 0.458859
27 1 0.817665 0.0722333 0.360213
405 2 0.911964 0.208298 0.388473
475 2 0.795771 0.085917 0.480357
320 1 0.956992 0.245622 0.494867
174 1 0.179761 0.482849 0.270467
311 1 0.156308 0.497271 0.406624
262 1 0.00469223 0.273126 0.344515
17 1 0.164562 0.262188 0.31369
180 1 0.203564 0.360768 0.418639
389 2 0.119244 0.418275 0.476213
173 1 0.0959115 0.391055 0.331541
86 1 0.077766 0.301241 0.45363
394 2 0.203859 0.366726 0.29723
278 1 0.021549 0.476472 0.428561
34 1 0.297267 0.496502 0.411496
21 1 0.462405 0.258222 0.430813
185 1 0.313781 0.270505 0.399666
256 1 0.386241 0.373483 0.449081
59 1 0.46312 0.373031 0.338017
120 1 0.315116 0.387491 0.325302
222 1 0.497189 0.454329 0.436074
443 2 0.397261 0.469975 0.347902
316 1 0.542136 0.255959 0.311165
451 2 0.745684 0.266801 0.38682
239 1 0.685366 0.2852 0.485585
473 2 0.628812 0.456555 0.430754
76 1 0.667385 0.298517 0.309656
9 1 0.723224 0.404702 0.397598
264 1 0.574493 0.335572 0.417848
13 1 0.605383 0.423099 0.309201
347 1 0.736951 0.499627 0.494036
471 2 0.829675 0.448064 0.348303
282 1 0.88432 0.451996 0.449934
355 1 0.875755 0.322707 0.389995
126 1 0.78771 0.368826 0.267749
269 1 0.955767 0.40503 0.298275
411 2 0.966319 0.351993 0.442247
408 2 0.789974 0.345052 0.474544
194 1 0.0871564 0.205183 0.554497
383 1 0.048421 0.15238 0.674729
93 1 0.0518629 0.066499 0.536374
430 2 0.181169 0.135948 0.653814
50 1 0.190386 0.0914441 0.539169
287 1 0.230862 0.214233 0.592017
179 1 0.123836 0.022607 0.656498
466 2 0.0211201 0.0336499 0.727419
66 1 0.241678 0.00491036 0.719798
213 1 0.330319 0.0977447 0.617243
300 1 0.38668 0.217199 0.688148
75 1 0.467768 0.0711792 0.653315
435 2 0.427569 0.176029 0.594653
40 1 0.475784 0.103402 0.507173
139 1 0.272799 0.152112 0.732802
375 1 0.517067 0.241292 0.631015
230 1 0.607175 0.122841 0.63459
398 2 0.611359 0.223128 0.708153
56 1 0.705067 0.149401 0.549581
55 1 0.729624 0.189359 0.677568
395 2 0.553476 0.0350591 0.572781
166 1 0.729287 0.04529 0.680731
397 2 0.68213 0.0412582 0.578284
216 1 0.520214 0.164734 0.742274
344 1 0.563803 0.216546 0.508439
464 2 0.839575 0.0869676 0.678698
415 2 0.976088 0.164416 0.57724
25 1 0.940643 0.0606358 0.62533
187 1 0.847532 0.165109 0.586723
308 1 0.897549 0.196839 0.712627
322 1 0.81192 0.00960451 0.57161
61 1 0.148403 0.266576 0.701859
332 1 0.141969 0.343134 0.573498
265 1 0.225147 0.385992 0.682572
88 1 0.0577924 0.395849 0.68984
214 1 0.140773 0.492151 0.556604
164 1 0.0184626 0.388739 0.549511
191 1 0.393411 0.47989 0.541035
423 2 0.295258 0.286464 0.652235
149 1 0.272175 0.400762 0.539604
155 1 0.364629 0.276746 0.559596
151 1 0.365235 0.39818 0.652818
467 2 0.468319 0.344953 0.667729
232 1 0.48772 0.357646 0.546198
441 2 0.262036 0.290099 0.50807
247 1 0.623179 0.419109 0.544839
325 1 0.653279 0.283845 0.615233
328 1 0.531062 0.440959 0.746516
406 2 0.583263 0.356004 0.668517
241 1 0.50869 0.478601 0.60941
357 1 0.702979 0.31552 0.736051
33 1 0.656017 0.446753 0.683139
305 1 0.985465 0.278244 0.632221
135 1 0.752761 0.384128 0.574559
478 2 0.961018 0.47985 0.541054
414 2 0.768945 0.255379 0.578339
16 1 0.824041 0.300396 0.671427
19 1 0.924094 0.4081 0.661177
252 1 0.882352 0.344467 0.541745
51 1 0.796813 0.441603 0.717198
107 1 0.853986 0.499212 0.577491
449 2 0.930174 0.310046 0.747586
431 2 0.230928 0.0525055 0.97271
132 1 0.188281 0.224656 0.969135
368 1 0.0294322 0.00196865 0.885425
140 1 0.140565 0.0948443 0.782398
295 1 0.0273603 0.139324 0.83105
142 1 0.129399 0.103433 0.926656
143 1 0.157131 0.224418 0.830269
338 1 0.0303834 0.2076 0.952396
136 1 0.260751 0.0677482 0.858776
231 1 0.391684 0.0695778 0.921415
91 1 0.391614 0.0860376 0.769898
363 1 0.427388 0.220862 0.821218
5 1 0.302215 0.203229 0.891963
273 1 0.422086 0.203811 0.977577
37 1 0.515963 0.0161745 0.833384
144 1 0.632223 0.0819732 0.788734
318 1 0.519888 0.139822 0.88278
42 1 0.642823 0.120657 0.941252
84 1 0.632955 0.231825 0.822919
432 2 0.715618 0.0679107 0.865475
468 2 0.628108 0.23781 0.946253
117 1 0.521077 0.0567577 0.99187
341 1 0.76363 0.183966 0.909478
114 1 0.8944 0.21558 0.847837
401 2 0.958874 0.112609 0.90602
465 2 0.795788 0.229703 0.76896
71 1 0.79201 0.110778 0.791689
186 1 0.928004 0.0568604 0.801868
145 1 0.844435 0.0567867 0.907942
44 1 0.891439 0.167642 0.978405
331 1 0.143358 0.388882 0.801034
353 1 0.0915169 0.338518 0.922306
81 1 0.24273 0.362766 0.906372
106 1 0.0105554 0.489937 0.922393
20 1 0.0365022 0.268298 0.794175
95 1 0.147306 0.47842 0.985414
79 1 0.427349 0.481078 0.853872
32 1 0.289809 0.455489 0.780008
1 1 0.409868 0.370561 0.7809
315 1 0.409884 0.348982 0.920872
476 2 0.499203 0.400905 0.864507
277 1 0.283131 0.283615 0.769436
373 1 0.444194 0.481487 0.987967
362 1 0.525121 0.296409 0.765099
124 1 0.531701 0.275337 0.900711
358 1 0.686397 0.337002 0.959293
261 1 0.745472 0.427276 0.85381
244 1 0.619667 0.385568 0.83436
418 2 0.715477 0.301208 0.850688
377 1 0.549471 0.38812 0.972716
152 1 0.984709 0.391311 0.825978
306 1 0.800034 0.450232 0.982686
189 1 0.877244 0.471223 0.860587
121 1 0.825869 0.298355 0.961302
457 2 0.923798 0.431896 0.960928
158 1 0.831208 0.332185 0.817187
87 1 0.954076 0.32826 0.943848
298 1 0.150712 0.592669 0.0605252
24 1 0.0990776 0.600748 0.194522
477 2 0.0418785 0.525778 0.0236583
223 1 0.204628 0.725496 0.193486
218 1 0.0182976 0.639676 0.0811147
100 1 0.133261 0.727659 0.0406592
96 1 0.0539453 0.741302 0.167796
433 2 0.234639 0.508427 0.0608432
330 1 0.27167 0.682412 0.0682659
97 1 0.253207 0.573313 0.156202
206 1 0.382875 0.629344 0.158742
436 2 0.458481 0.578305 0.0572391
64 1 0.346208 0.583711 0.0205807
286 1 0.482116 0.719657 0.195426
396 2 0.383379 0.715593 0.0512452
294 1 0.394157 0.502824 0.123499
137 1 0.5212 0.578757 0.149532
211 1 0.512827 0.695776 0.052514
337 1 0.649547 0.638112 0.113534
387 2 0.694882 0.728594 0.224808
134 1 0.748902 0.600914 0.205298
292 1 0.639961 0.505259 0.188325
453 2 0.723819 0.653535 0.000500955
324 1 0.581647 0.564264 0.0200189
202 1 0.979104 0.503589 0.151029
349 1 0.757003 0.711581 0.116908
283 1 0.763831 0.567083 0.0661188
46 1 0.976299 0.646264 0.236227
85 1 0.890707 0.606761 0.145986
456 2 0.848994 0.65644 0.0499757
266 1 0.901631 0.741085 0.115502
280 1 0.923679 0.532389 0.0291625
11 1 0.123409 0.86005 0.121209
156 1 0.00448595 0.934705 0.0684512
36 1 0.0396741 0.938222 0.230866
472 2 0.225732 0.800034 0.0902976
281 1 0.24683 0.927626 0.0755421
444 2 0.154522 0.972549 0.136247
246 1 0.00228279 0.803863 0.025996
402 2 0.000927835 0.846429 0.140289
384 1 0.184809 0.985893 0.244423
369 1 0.126563 0.98859 0.0286279
54 1 0.314598 0.810319 0.0256023
345 1 0.444369 0.959092 0.0682341
329 1 0.351739 0.772056 0.162297
175 1 0.42844 0.886632 0.193859
133 1 0.258402 0.866282 0.201475
379 1 0.463974 0.813526 0.0867085
459 2 0.481989 0.999323 0.168708
43 1 0.606621 0.764182 0.146181
238 1 0.71501 0.8399 0.0753183
236 1 0.560766 0.907996 0.132811
463 2 0.548959 0.818161 0.225179
267 1 0.674364 0.882191 0.217973
455 2 0.654876 0.992737 0.164119
207 1 0.804008 0.820176 0.193663
343 1 0.860142 0.872507 0.0630676
254 1 0.774303 0.954482 0.137259
372 1 0.916442 0.914142 0.18321
386 2 0.211258 0.639327 0.259413
141 1 0.0514402 0.628125 0.412168
461 2 0.122524 0.569681 0.318552
240 1 0.112261 0.698815 0.312164
260 1 0.0207523 0.531789 0.292373
390 2 0.154241 0.700487 0.425076
57 1 0.232439 0.616514 0.366911
429 2 0.00223282 0.74041 0.344852
427 2 0.343956 0.598501 0.366621
150 1 0.314557 0.516502 0.271337
310 1 0.318513 0.670759 0.267353
319 1 0.375754 0.705736 0.413637
131 1 0.447121 0.578518 0.439983
196 1 0.446804 0.60685 0.302944
161 1 0.495747 0.738165 0.350619
49 1 0.258434 0.721451 0.472699
243 1 0.621256 0.63345 0.256053
26 1 0.722838 0.519419 0.315909
197 1 0.567115 0.552346 0.36129
291 1 0.609116 0.671638 0.420602
460 2 0.680605 0.579452 0.425843
103 1 0.731179 0.665396 0.336471
304 1 0.582546 0.555616 0.499993
22 1 0.836668 0.700605 0.25906
259 1 0.831988 0.702408 0.481199
8 1 0.873114 0.523456 0.269493
410 2 0.941977 0.54784 0.372728
99 1 0.815257 0.568437 0.405714
312 1 0.919556 0.651938 0.362622
171 1 0.930459 0.581863 0.495906
342 1 0.238013 0.757473 0.331068
447 2 0.0270496 0.859841 0.491768
146 1 0.128146 0.828978 0.259097
125 1 0.106302 0.803193 0.407325
370 1 0.128343 0.94916 0.37393
182 1 0.00954336 0.995836 0.416628
314 1 0.213132 0.855702 0.481524
380 1 0.228718 0.985455 0.44864
122 1 0.262449 0.882725 0.352218
128 1 0.378448 0.798491 0.310852
470 2 0.357712 0.93477 0.274225
420 2 0.444377 0.816764 0.430815
268 1 0.396548 0.924937 0.394575
469 2 0.749811 0.81317 0.31579
272 1 0.587526 0.990096 0.256133
226 1 0.717198 0.780568 0.447168
233 1 0.509533 0.87966 0.312352
313 1 0.540697 0.980937 0.393097
110 1 0.637803 0.778194 0.322788
255 1 0.559494 0.828853 0.443461
28 1 0.652739 0.915109 0.357266
366 1 0.72478 0.999501 0.441285
195 1 0.818274 0.901703 0.297658
271 1 0.846796 0.793625 0.375583
399 2 0.779674 0.874895 0.412617
263 1 0.870959 0.958042 0.435629
115 1 0.884555 0.837267 0.497282
276 1 0.938116 0.79348 0.265209
279 1 0.985393 0.751583 0.471181
7 1 0.915823 0.993841 0.309975
147 1 0.973791 0.874058 0.376251
381 1 0.12562 0.627496 0.627499
450 2 0.047738 0.747372 0.654114
400 2 0.0629917 0.571454 0.522681
102 1 0.247524 0.601893 0.744478
78 1 0.17125 0.619109 0.50268
101 1 0.00609861 0.648845 0.715026
409 2 0.240728 0.523669 0.503225
257 1 0.00421402 0.52936 0.637251
77 1 0.153841 0.508026 0.698508
205 1 0.255782 0.669263 0.6179
285 1 0.380696 0.730828 0.570908
109 1 0.400214 0.527972 0.712685
346 1 0.43558 0.607981 0.591767
148 1 0.376576 0.6947 0.707505
388 2 0.267165 0.747016 0.721835
198 1 0.291398 0.521664 0.630894
167 1 0.320476 0.610532 0.508871
220 1 0.493304 0.706673 0.502775
392 2 0.628531 0.525285 0.59869
127 1 0.509894 0.720549 0.635931
35 1 0.57807 0.589321 0.682004
293 1 0.697467 0.633507 0.552748
90 1 0.721453 0.607098 0.684971
417 2 0.579262 0.652583 0.556543
275 1 0.635801 0.716349 0.694365
123 1 0.89319 0.538596 0.723827
183 1 0.850074 0.646908 0.622802
234 1 0.992287 0.668109 0.585349
479 2 0.811027 0.592735 0.528457
225 1 0.779095 0.718386 0.737447
385 2 0.872065 0.653634 0.747207
339 1 0.755423 0.745113 0.60541
18 1 0.135467 0.75638 0.544941
249 1 0.160942 0.752689 0.678448
65 1 0.11636 0.880694 0.633732
360 1 0.105323 0.944176 0.511087
157 1 0.242812 0.953441 0.589308
309 1 0.0406852 0.811027 0.74295
108 1 0.274006 0.812959 0.613493
393 2 0.49557 0.953402 0.633552
160 1 0.407569 0.843708 0.638395
208 1 0.302915 0.874061 0.737168
74 1 0.365059 0.971544 0.66058
364 1 0.466985 0.953378 0.516634
118 1 0.468472 0.917648 0.738426
438 2 0.482551 0.832797 0.550265
58 1 0.354919 0.87011 0.515151
340 1 0.624728 0.768092 0.550073
154 1 0.739338 0.880272 0.522079
321 1 0.562279 0.846833 0.660515
10 1 0.697902 0.8913 0.667475
6 1 0.596256 0.924998 0.53842
212 1 0.601905 0.986099 0.67749
480 2 0.876689 0.769437 0.593298
39 1 0.990617 0.821076 0.599232
163 1 0.978006 0.93212 0.679919
63 1 0.918607 0.760043 0.712226
350 1 0.836498 0.866297 0.630982
130 1 0.951888 0.946952 0.542051
68 1 0.850506 0.980956 0.715016
138 1 0.135192 0.657836 0.786551
228 1 0.223622 0.628804 0.934794
45 1 0.0331769 0.519632 0.773207
274 1 0.0793901 0.60889 0.93742
192 1 0.153462 0.748251 0.890469
391 2 0.0550488 0.73246 0.957486
413 2 0.240561 0.73806 0.967736
203 1 0.0150072 0.723023 0.853588
290 1 0.154667 0.524518 0.845717
116 1 0.349608 0.600942 0.844488
333 1 0.452064 0.6179 0.941175
422 2 0.44226 0.697108 0.843494
327 1 0.360338 0.718315 0.935149
288 1 0.27665 0.719184 0.833972
301 1 0.485919 0.596452 0.793406
113 1 0.281438 0.505778 0.92148
454 2 0.668702 0.645463 0.793446
2 1 0.641879 0.532866 0.791452
229 1 0.590627 0.654262 0.895757
169 1 0.718292 0.70127 0.88048
23 1 0.691095 0.557318 0.934748
371 1 0.555971 0.515139 0.898234
248 1 0.782549 0.571019 0.807526
119 1 0.820632 0.610503 0.941519
242 1 0.946325 0.593012 0.861465
82 1 0.939543 0.691549 0.974688
129 1 0.869328 0.711635 0.845494
83 1 0.175742 0.968 0.892783
199 1 0.085808 0.95141 0.774743
297 1 0.0539617 0.850296 0.87618
209 1 0.174985 0.843656 0.787068
210 1 0.173876 0.841245 0.987998
404 2 0.461414 0.962653 0.954872
434 2 0.265455 0.955388 0.824447
296 1 0.416378 0.863361 0.951274
303 1 0.308655 0.967003 0.954533
188 1 0.279488 0.85281 0.895798
170 1 0.402511 0.805221 0.816079
98 1 0.381525 0.940921 0.844862
317 1 0.499179 0.755766 0.933467
382 1 0.553638 0.879682 0.854505
52 1 0.558135 0.891884 0.995177
365 1 0.538208 0.751405 0.791959
428 2 0.615627 0.77317 0.882918
30 1 0.637534 0.98004 0.895568
367 1 0.713655 0.837623 0.916555
437 2 0.627481 0.948094 0.789573
112 1 0.664696 0.828202 0.792036
245 1 0.641456 0.753578 0.995761
448 2 0.831512 0.90933 0.880739
165 1 0.798064 0.750299 0.986241
224 1 0.91937 0.957853 0.957646
190 1 0.814545 0.83817 0.794029
378 1 0.904549 0.828023 0.932465
92 1 0.945971 0.917371 0.816719
426 2 0.938527 0.803952 0.820398
356 1 0.753957 0.961221 0.810876
289 1 0.775172 0.950126 0.976295
ITEM: TIMESTEP
300000
ITEM: NUMBER OF ATOMS
480
ITEM: BOX BOUNDS pp pp pp
0.0000000000000000e+00 7.3680629972807701e+00
0.0000000000000000e+00 7.3680629972807701e+00
0.0000000000000000e+00 7.3680629972807701e+00
ITEM: ATOMS id type xs ys zs
352 1 0.154956 0.0568261 0.174219
338 1 0.186271 0.195412 0.115444
372 1 0.103212 0.110606 0.0454645
176 1 0.0359403 0.228483 0.120956
178 1 0.0851159 0.169884 0.24875
195 1 0.0020904 0.0883318 0.138213
200 1 0.433681 0.148029 0.176308
442 2 0.480899 0.244492 0.223115
270 1 0.462994 0.264754 0.107636
345 1 0.404618 0.0253687 0.0777413
303 1 0.26967 0.0967365 0.109916
334 1 0.323007 0.234079 0.165957
111 1 0.382136 0.164816 0.0358956
251 1 0.274105 0.0118831 0.23244
171 1 -9.52192e-05 0.406713 0.325028
250 1 0.63677 0.0741329 0.0957165
235 1 0.568606 0.176215 0.165609
47 1 0.699433 0.169185 0.179586
273 1 0.631487 0.217987 0.0543704
67 1 0.729597 0.0233013 0.199299
117 1 0.522756 0.136851 0.0389295
469 2 0.622924 0.0676909 0.228822
234 1 0.860903 0.472371 0.420139
42 1 0.915152 0.169166 0.0761387
207 1 0.870242 0.0472672 0.179662
367 1 0.773674 0.0862064 0.077845
15 1 0.905036 0.0373576 0.037766
73 1 0.943664 0.170742 0.242237
216 1 0.772387 0.248309 0.100023
455 2 0.828784 0.170326 0.178753
76 1 0.84366 0.271639 0.231945
457 2 0.315281 0.0618296 0.000229896
177 1 0.201199 0.405624 0.162574
323 1 0.14089 0.291595 0.206017
260 1 0.0530637 0.370505 0.078012
416 2 0.240468 0.301527 0.130932
132 1 0.268523 0.298566 0.298228
335 1 0.0662001 0.418617 0.2011
355 1 0.765915 0.305112 0.368143
424 2 0.921482 0.274054 0.331769
14 1 0.411814 0.342324 0.211335
193 1 0.340217 0.393522 0.0992019
94 1 0.490133 0.38938 0.1048
48 1 0.650666 0.00915928 0.429422
262 1 0.918511 0.2982 0.451294
196 1 0.624467 0.36682 0.399
410 2 0.960915 0.412809 0.433279
34 1 0.521183 0.432116 0.236935
471 2 0.677009 0.375255 0.123185
124 1 0.590801 0.312968 0.165992
221 1 0.701469 0.334407 0.000692278
269 1 0.739451 0.349515 0.223642
85 1 0.660831 0.468961 0.206363
286 1 0.412572 0.012601 0.423297
126 1 0.612051 0.449511 0.0718768
478 2 0.933573 0.475399 0.243811
3 1 0.987169 0.300773 0.230146
318 1 0.805295 0.394792 0.0827492
121 1 0.913285 0.305588 0.110638
451 2 0.850392 0.378967 0.184132
252 1 0.935357 0.446034 0.13908
107 1 0.802165 0.486542 0.206633
348 1 0.254344 0.149638 0.24263
379 1 0.519951 0.0380435 0.164558
93 1 0.99409 0.0495424 0.426096
459 2 0.171328 0.0842288 0.289787
69 1 0.132385 0.0766203 0.415076
361 1 0.0663535 0.0403754 0.301974
227 1 0.0325404 0.178746 0.375289
415 2 0.24456 0.139981 0.45647
8 1 0.866847 0.383416 0.304397
4 1 0.274565 0.0580513 0.368006
376 1 0.387285 0.0790339 0.288567
425 2 0.301041 0.179306 0.352692
104 1 0.369941 0.141201 0.460297
439 2 0.446258 0.116339 0.368916
253 1 0.464042 0.227506 0.424481
184 1 0.391784 0.22852 0.303706
113 1 0.403592 0.477787 0.000534965
128 1 0.522062 0.0317806 0.310056
236 1 0.657139 0.108517 0.322737
162 1 0.521515 0.0983718 0.439633
13 1 0.532466 0.169445 0.300557
399 2 0.655006 0.121513 0.459476
316 1 0.519308 0.315307 0.31063
272 1 0.762736 0.0280676 0.366174
187 1 0.75864 0.178068 0.429548
336 1 0.798999 0.154605 0.284465
7 1 0.886923 0.0566735 0.31848
168 1 0.896398 0.175021 0.387329
130 1 0.858712 0.0675973 0.468851
17 1 0.174939 0.207011 0.345525
462 2 0.078293 0.270696 0.315854
194 1 0.0494321 0.319648 0.417633
153 1 0.129819 0.450711 0.437249
60 1 0.14691 0.381692 0.315189
247 1 0.415775 0.406257 0.497149
167 1 0.261961 0.413501 0.421947
59 1 0.298821 0.275437 0.432749
409 2 0.180845 0.308557 0.419083
400 2 0.41349 0.441674 0.285257
174 1 0.298372 0.455636 0.282699
197 1 0.389685 0.363149 0.362434
419 2 0.833427 0.371171 0.448647
408 2 0.687695 0.307583 0.484831
458 2 0.622721 0.376148 0.276339
9 1 0.65241 0.263491 0.284379
150 1 0.405256 0.496468 0.17839
473 2 0.491525 0.340852 0.425224
51 1 0.74488 0.45038 0.341669
26 1 0.61232 0.226262 0.420116
243 1 0.512093 0.443198 0.37464
159 1 0.285649 0.269896 0.0214701
472 2 0.08556 0.484717 0.306544
394 2 0.20077 0.489391 0.35137
452 2 0.137211 0.487162 0.0215674
81 1 0.202605 0.393412 0.00380339
72 1 0.124091 0.279909 0.00952612
383 1 0.144319 0.201768 0.475996
179 1 0.0748618 0.118137 0.593467
430 2 0.152644 0.204606 0.585129
295 1 0.125225 0.204083 0.738903
5 1 0.214679 0.122499 0.662473
441 2 0.14078 0.0308382 0.632733
157 1 0.102746 0.0657748 0.738643
204 1 0.187739 0.0669748 0.537959
71 1 0.935852 0.00189701 0.900848
180 1 0.280235 0.198347 0.558505
151 1 0.363455 0.119331 0.645082
344 1 0.461958 0.0341435 0.542043
40 1 0.517618 0.0768204 0.671948
347 1 0.547156 0.449409 0.509309
392 2 0.327838 0.394994 0.975147
239 1 0.487743 0.1633 0.569243
38 1 0.603732 0.0764691 0.560887
325 1 0.582586 0.226071 0.654643
230 1 0.667188 0.108799 0.673792
302 1 0.812428 0.16995 0.602175
357 1 0.689683 0.235577 0.743242
232 1 0.680754 0.201736 0.559832
337 1 0.732091 0.474914 0.989956
254 1 0.73556 0.0626925 0.534995
405 2 0.968424 0.041424 0.546636
258 1 0.946843 0.123853 0.653016
401 2 0.833112 0.0764949 0.701309
306 1 0.913033 0.407017 0.998447
305 1 0.970734 0.230174 0.734369
56 1 0.818404 0.193221 0.73508
120 1 0.158707 0.334092 0.52892
66 1 0.0581869 0.258448 0.628478
466 2 0.0656864 0.315673 0.747601
287 1 0.197814 0.290382 0.654882
191 1 0.102298 0.388171 0.665353
86 1 0.00340178 0.383829 0.539491
461 2 0.218274 0.451449 0.523409
143 1 0.239096 0.433246 0.660196
465 2 0.879296 0.299307 0.757101
241 1 0.43502 0.267673 0.689502
443 2 0.323181 0.255049 0.642116
185 1 0.396628 0.259815 0.539467
149 1 0.299151 0.351461 0.555999
256 1 0.404543 0.408504 0.631436
321 1 0.314468 0.496542 0.548895
70 1 0.411859 0.310295 0.981119
406 2 0.630484 0.438673 0.649704
135 1 0.670169 0.328297 0.616802
33 1 0.538003 0.37301 0.662713
264 1 0.555575 0.301086 0.528821
261 1 0.750152 0.46396 0.631409
411 2 0.0457289 0.266332 0.516119
25 1 0.863266 0.0157887 0.599314
139 1 0.965794 0.372863 0.697174
164 1 0.916089 0.272068 0.606166
308 1 0.799066 0.315649 0.670641
16 1 0.861108 0.400733 0.574845
80 1 0.796843 0.284844 0.511005
23 1 0.815732 0.43147 0.746643
468 2 0.100178 0.183305 0.924648
136 1 0.119267 0.062837 0.908133
307 1 0.213394 0.11426 0.821672
114 1 0.0122086 0.121381 0.826813
237 1 0.215959 0.137199 0.980981
341 1 0.208339 0.242747 0.8939
217 1 0.427835 0.0456884 0.932351
368 1 0.272796 0.0127692 0.910269
331 1 0.28758 0.211633 0.754186
37 1 0.482982 0.011716 0.798939
155 1 0.439094 0.159848 0.7681
75 1 0.334456 0.0635017 0.778751
277 1 0.324311 0.161775 0.905548
1 1 0.481528 0.204575 0.9034
105 1 0.979027 0.285964 0.989315
375 1 0.579966 0.152738 0.769625
212 1 0.563613 0.0802319 0.899466
382 1 0.633382 0.20752 0.911872
356 1 0.68939 0.077093 0.953778
397 2 0.667397 0.0995567 0.839338
446 2 0.724414 0.202324 0.990143
362 1 0.757642 0.182121 0.858811
186 1 0.871461 0.0910626 0.819006
10 1 0.753658 0.0366751 0.777507
44 1 0.999769 0.129477 0.963366
224 1 0.896086 0.224311 0.854719
414 2 0.780513 0.0693207 0.890751
374 1 0.549142 0.321636 0.980336
418 2 0.953018 0.480994 0.909861
181 1 0.839767 0.471661 0.886763
30 1 0.787525 0.309439 0.821299
32 1 0.168204 0.455021 0.881219
20 1 0.184462 0.354782 0.776006
433 2 0.147415 0.341884 0.915453
142 1 0.0583956 0.279816 0.858835
158 1 0.0601576 0.421844 0.803083
280 1 0.0541055 0.417455 0.95087
21 1 0.321272 0.34895 0.73788
353 1 0.287809 0.369128 0.877603
423 2 0.4588 0.352448 0.761567
328 1 0.420092 0.46295 0.766539
87 1 0.269346 0.47609 0.77596
98 1 0.38939 0.276767 0.827317
29 1 0.462419 0.385853 0.876734
422 2 0.37669 0.459281 0.88873
351 1 0.842211 0.133278 0.965098
55 1 0.6867 0.385166 0.734481
201 1 0.703081 0.461762 0.84797
300 1 0.576355 0.444786 0.936927
215 1 0.551682 0.286149 0.785147
244 1 0.563915 0.460307 0.788067
363 1 0.65389 0.339314 0.874947
145 1 0.92756 0.368823 0.859801
189 1 0.83506 0.279457 0.974193
432 2 0.772845 0.376295 0.921516
467 2 0.860041 0.183645 0.498785
278 1 0.124947 0.493118 0.568485
299 1 0.317175 0.0251273 0.53661
90 1 0.982654 0.177151 0.50067
19 1 0.736653 0.419789 0.48664
146 1 0.0381641 0.66818 0.124622
95 1 0.0878998 0.533296 0.126842
297 1 0.183346 0.630722 0.122121
218 1 0.142752 0.725343 0.0205072
202 1 0.178572 0.531508 0.23087
444 2 0.266757 0.732461 0.109952
292 1 0.37359 0.588653 0.0784311
387 2 0.302022 0.556937 0.214553
329 1 0.474383 0.702479 0.143631
310 1 0.363083 0.656002 0.211963
315 1 0.52447 0.552232 0.120575
330 1 0.261636 0.517054 0.098767
373 1 0.359565 0.748014 0.0380855
134 1 0.642629 0.51577 0.41836
312 1 0.847666 0.805098 0.300633
421 2 0.482456 0.607064 0.214464
283 1 0.720924 0.559301 0.104855
52 1 0.617461 0.649786 0.133417
463 2 0.68147 0.588911 0.215106
54 1 0.563518 0.755757 0.0220383
211 1 0.694551 0.70372 0.0112646
437 2 0.735094 0.692558 0.121524
12 1 0.699229 0.696743 0.243697
206 1 0.583981 0.556292 0.291086
100 1 0.211421 0.838437 0.0301972
354 1 -0.000791291 0.533104 0.0136469
358 1 0.828879 0.680593 0.051112
474 2 0.938441 0.642899 0.035328
22 1 0.809838 0.623899 0.191324
78 1 0.933549 0.585765 0.148311
276 1 0.935097 0.707141 0.214886
53 1 0.858713 0.543434 0.0388619
222 1 0.365986 0.51357 0.417156
96 1 0.156719 0.766177 0.149161
156 1 0.0740454 0.859067 0.0464943
27 1 0.104136 0.924752 0.184315
46 1 0.0282972 0.816552 0.193273
398 2 0.0265475 0.761556 0.0412016
41 1 0.236453 0.874896 0.156052
320 1 0.887344 0.9192 0.38058
477 2 0.27606 0.621359 0.0403741
386 2 0.306707 0.970751 0.116934
391 2 0.468019 0.94335 0.117014
384 1 0.271397 0.755545 0.232873
369 1 0.367603 0.865693 0.111194
175 1 0.401511 0.795223 0.227598
133 1 0.392609 0.945113 0.220229
407 2 0.187575 0.977489 0.4476
118 1 0.527084 0.986081 0.0227603
333 1 0.573109 0.758495 0.231759
349 1 0.509176 0.830568 0.129842
43 1 0.668892 0.801204 0.106152
233 1 0.622839 0.945318 0.150522
203 1 0.68488 0.952801 0.0227241
404 2 0.72358 0.89925 0.13893
226 1 0.693494 0.845921 0.235251
115 1 0.815581 0.923676 0.237785
343 1 0.778885 0.818436 0.0242532
36 1 0.92153 0.787948 0.0876472
289 1 0.980899 0.926984 0.110367
271 1 0.827399 0.927593 0.0935032
267 1 0.809451 0.776086 0.175448
402 2 0.901389 0.840846 0.200491
24 1 0.152293 0.676575 0.250986
141 1 0.0404967 0.592874 0.256682
240 1 0.126258 0.582421 0.371373
122 1 0.101698 0.728322 0.372855
447 2 0.0307268 0.734021 0.270891
319 1 0.219729 0.683411 0.438745
49 1 0.2277 0.548862 0.461786
205 1 0.0201607 0.651185 0.478577
448 2 0.587981 0.886722 0.0425443
294 1 0.417835 0.55715 0.298715
311 1 0.27088 0.626333 0.312402
57 1 0.490442 0.688213 0.308319
131 1 0.380735 0.649713 0.408146
342 1 0.332027 0.767432 0.362144
293 1 0.500012 0.584658 0.410642
263 1 0.718678 0.79971 0.482875
427 2 0.620203 0.743219 0.450609
103 1 0.620547 0.668093 0.359174
304 1 0.693468 0.635862 0.471191
479 2 0.761401 0.52392 0.428817
99 1 0.750008 0.586766 0.3268
450 2 0.916245 0.702044 0.469532
324 1 0.494085 0.646197 0.00712287
173 1 0.991558 0.534471 0.387796
123 1 0.743204 0.728973 0.369548
381 1 0.969153 0.687128 0.346966
385 2 0.849654 0.682221 0.304363
279 1 0.893901 0.573368 0.289481
259 1 0.835278 0.617726 0.423635
360 1 -0.00865489 0.837727 0.328061
429 2 0.21244 0.733508 0.336045
160 1 0.985129 0.793031 0.462959
58 1 0.199164 0.830389 0.41297
412 2 -0.00339805 0.958625 0.361
370 1 0.153397 0.816081 0.278977
50 1 0.0776907 0.903182 0.420289
182 1 0.17139 0.953346 0.316749
39 1 0.848571 0.810044 0.451101
420 2 0.374106 0.766576 0.471941
31 1 0.284336 0.875998 0.29718
326 1 0.299072 0.92588 0.435797
11 1 0.410596 0.894012 0.355168
470 2 0.336424 0.972836 0.320438
449 2 0.0848273 1.01078 0.0958554
110 1 0.488777 0.759021 0.441392
281 1 0.520567 0.896847 0.255104
62 1 0.541426 0.904761 0.404264
284 1 0.63033 0.803818 0.346656
313 1 0.654176 0.959032 0.298768
460 2 0.48514 0.809328 0.323417
480 2 0.656063 0.896304 0.429117
125 1 0.967683 0.953588 0.245871
28 1 0.753666 0.876919 0.367676
89 1 0.192849 0.990288 0.0417721
396 2 0.524005 0.528094 0.000654416
389 2 0.133571 0.626785 0.48141
417 2 0.453943 0.658072 0.511558
364 1 0.441625 0.895363 0.499383
210 1 0.330065 0.934574 0.00114654
88 1 0.0980583 0.646736 0.600385
288 1 0.180554 0.662305 0.722493
332 1 0.227607 0.587981 0.610521
108 1 0.272304 0.783009 0.518541
390 2 0.0217105 0.739519 0.56502
170 1 0.286683 0.719348 0.654543
380 1 0.0754355 0.996123 0.532992
249 1 0.125131 0.763589 0.519491
445 2 0.827815 0.942066 0.845644
403 2 0.19171 0.706287 0.578002
109 1 0.331969 0.64236 0.530915
127 1 0.470956 0.632741 0.623879
440 2 0.554454 0.976036 0.502302
388 2 0.270521 0.597123 0.743376
371 1 0.512362 0.50603 0.638054
301 1 0.393365 0.692029 0.735394
198 1 0.362003 0.558302 0.68223
282 1 0.652442 0.548519 0.574121
229 1 0.687835 0.731251 0.602005
35 1 0.606353 0.636272 0.664177
161 1 0.572554 0.677394 0.532124
275 1 0.724171 0.73609 0.7333
257 1 0.874764 0.527113 0.654695
290 1 0.988249 0.736586 0.679747
248 1 0.760712 0.62076 0.662367
454 2 0.822292 0.728608 0.65018
129 1 0.813515 0.69303 0.539889
242 1 0.804791 0.544715 0.535867
102 1 0.927102 0.647279 0.588755
61 1 0.959702 0.513189 0.522146
101 1 0.888708 0.644101 0.727168
199 1 0.127676 0.773793 0.663039
314 1 0.0355799 0.860302 0.583341
213 1 0.119276 0.920221 0.673961
393 2 0.231978 0.812972 0.621226
172 1 0.192177 0.900962 0.534669
65 1 0.235835 0.863587 0.727096
83 1 0.989667 0.990229 0.654595
268 1 0.617219 1.00086 0.771596
285 1 0.332718 0.874456 0.589761
220 1 0.425741 0.759064 0.570803
208 1 0.377574 0.845014 0.759448
395 2 0.441124 0.862695 0.658568
6 1 0.415389 0.978234 0.671117
152 1 0.929653 0.518674 0.790199
144 1 0.746409 0.974702 0.647837
346 1 0.544681 0.78226 0.658304
183 1 0.645546 0.875189 0.672997
322 1 0.537952 0.926699 0.616904
366 1 0.65939 0.937468 0.546542
74 1 0.526775 0.884306 0.749173
2 1 0.671551 0.522446 0.723656
255 1 0.584945 0.829628 0.524032
18 1 0.945538 0.934794 0.511255
163 1 0.877217 0.969815 0.74684
209 1 0.98871 0.872211 0.724023
225 1 0.9046 0.796175 0.577724
339 1 0.774184 0.838251 0.617896
475 2 0.861383 0.906455 0.647005
190 1 0.870757 0.788242 0.748987
266 1 0.0226143 0.66498 0.964606