ITEM: TIMESTEP
0
ITEM: NUMBER OF ATOMS
480
ITEM: BOX BOUNDS pp pp pp
0.0000000000000000e+00 7.3680629972807701e+00
0.0000000000000000e+00 7.3680629972807701e+00
0.0000000000000000e+00 7.3680629972807701e+00
ITEM: ATOMS id type xs ys zs
169 1 0.176228 0.207854 0.166674
460 2 0.145779 0.105843 0.101587
372 1 0.0581944 0.0699998 0.170692
156 1 0.113503 0.198336 0.031674
381 1 0.0865321 0.0522448 0.0169625
264 1 0.180833 0.0786118 0.217937
127 1 0.21367 0.00980743 0.0715424
34 1 0.27534 0.122393 0.127803
400 2 0.48506 0.108288 0.0866355
195 1 0.35909 0.0415688 0.0721492
277 1 0.394776 0.217658 0.0706702
203 1 0.402172 0.127802 0.179548
270 1 0.519167 0.0215773 0.0291704
251 1 0.562633 0.0519387 0.180699
308 1 0.729715 0.163038 0.0626977
260 1 0.514331 0.206529 0.139121
27 1 0.649579 0.164627 0.186442
319 1 0.669659 0.033281 0.0768898
369 1 0.592028 0.135153 0.0356362
461 2 0.752921 0.0936628 0.174913
188 1 0.97043 0.216522 0.218489
4 1 0.975004 0.131326 0.0700218
28 1 0.859466 0.126027 0.163824
391 2 0.862766 0.0974398 0.0553416
411 2 0.956182 0.0940405 0.213762
50 1 0.863179 0.22368 0.0522488
130 1 0.9423 0.0048394 0.0241754
262 1 0.811345 0.00455529 0.119664
7 1 0.231399 0.37308 0.143763
93 1 0.123252 0.33886 0.0652517
389 2 0.0293996 0.402365 0.102989
384 1 0.0892438 0.312128 0.195846
451 2 0.162276 0.411557 0.226487
354 1 0.236203 0.396961 0.00591573
311 1 0.101634 0.469983 0.0162397
149 1 0.100027 0.48345 0.1569
314 1 0.257634 0.251192 0.0558549
62 1 0.311518 0.258637 0.198902
315 1 0.355466 0.351932 0.0791182
67 1 0.369006 0.435625 0.204626
202 1 0.445915 0.318026 0.177964
219 1 0.461709 0.43578 0.103209
177 1 0.325736 0.498197 0.0622582
430 2 0.648607 0.252719 0.118405
426 2 0.592147 0.44576 0.106497
252 1 0.56215 0.330517 0.0673594
167 1 0.596912 0.291877 0.215758
113 1 0.673445 0.393821 0.169428
227 1 0.729017 0.330802 0.0417887
63 1 0.757823 0.260438 0.159312
22 1 0.950245 0.479526 0.146725
449 2 0.761075 0.431211 0.0944151
301 1 0.858588 0.354835 0.0887448
234 1 0.959244 0.370891 0.213962
53 1 0.824888 0.405864 0.21144
284 1 0.987671 0.281374 0.100832
57 1 0.937345 0.490149 0.00383887
196 1 0.201737 0.1139 0.37212
235 1 0.0725344 0.136713 0.295808
362 1 0.125401 0.224383 0.383256
412 2 0.195659 0.187251 0.286336
205 1 0.0766468 0.102361 0.443295
415 2 0.235698 0.0121523 0.321873
456 2 0.192357 0.0897116 0.493036
9 1 0.125083 0.00844344 0.32748
253 1 0.302713 0.140404 0.273218
257 1 0.41743 0.170075 0.363152
250 1 0.329378 0.0519142 0.408693
394 2 0.406672 0.227429 0.26743
223 1 0.456217 0.0353871 0.280561
215 1 0.286133 0.237065 0.395903
453 2 0.536076 0.0378142 0.496241
220 1 0.532907 0.12124 0.406334
282 1 0.649598 0.223656 0.320119
109 1 0.649088 0.0747087 0.296123
458 2 0.647053 0.113072 0.410424
21 1 0.530472 0.174657 0.271568
49 1 0.728296 0.183828 0.448086
90 1 0.730677 0.0423473 0.453787
56 1 0.858758 0.0106447 0.417786
375 1 0.819028 0.027442 0.28219
268 1 0.980735 0.035621 0.309031
37 1 0.982067 0.207095 0.404662
454 2 0.806439 0.11137 0.391479
297 1 0.76388 0.149082 0.283934
435 2 0.956103 0.0929525 0.416813
3 1 0.865603 0.139703 0.478394
325 1 0.899547 0.138206 0.313397
111 1 0.15178 0.41178 0.444927
377 1 0.198901 0.307544 0.284719
473 2 0.0516624 0.259407 0.298086
433 2 0.0412779 0.437488 0.412092
480 2 0.185355 0.296866 0.458156
105 1 0.0934008 0.370944 0.319908
100 1 0.0579812 0.312553 0.449536
126 1 0.251606 0.449712 0.306014
462 2 0.40011 0.436679 0.322926
116 1 0.344091 0.330722 0.312339
141 1 0.293127 0.380528 0.432113
133 1 0.392634 0.276878 0.473705
165 1 0.485901 0.419095 0.415298
151 1 0.487944 0.295789 0.342642
47 1 0.503457 0.40949 0.257581
154 1 0.58396 0.258686 0.445429
444 2 0.62075 0.448316 0.263715
387 2 0.642618 0.412283 0.438622
313 1 0.725493 0.331612 0.280838
94 1 0.605177 0.354289 0.349028
184 1 0.718398 0.317532 0.421157
38 1 0.714019 0.476195 0.347759
350 1 0.847482 0.261816 0.26972
59 1 0.847517 0.270608 0.407154
373 1 0.982115 0.468646 0.306593
352 1 0.967306 0.326426 0.342586
180 1 0.83342 0.403647 0.343688
135 1 0.934328 0.382937 0.455905
357 1 0.801205 0.472272 0.458671
210 1 0.116824 0.107834 0.619753
121 1 0.226537 0.194879 0.645252
176 1 0.240589 0.089837 0.733057
258 1 0.14926 0.197721 0.519761
320 1 0.080516 0.244289 0.666927
20 1 0.122317 0.0203055 0.729241
439 2 0.164246 0.000426322 0.615145
255 1 0.251478 0.0622716 0.584843
341 1 0.351182 0.156423 0.730988
393 2 0.468401 0.154122 0.649165
190 1 0.373085 0.0504658 0.650392
347 1 0.375818 0.22081 0.613824
69 1 0.435852 0.0909368 0.524692
35 1 0.306723 0.157868 0.500124
295 1 0.606498 0.182448 0.65654
450 2 0.654224 0.0693554 0.623904
117 1 0.528638 0.0534936 0.630855
316 1 0.741086 0.247738 0.670406
60 1 0.741503 0.108769 0.703848
128 1 0.504164 0.232813 0.558052
333 1 0.621076 0.131475 0.531659
24 1 0.985992 0.141217 0.693292
410 2 0.796081 0.227106 0.527433
65 1 0.759246 0.128347 0.568584
222 1 0.995637 0.168157 0.552962
163 1 0.86999 0.231301 0.615188
123 1 0.873422 0.0701291 0.643162
422 2 0.880954 0.207056 0.736784
437 2 0.832698 0.0436844 0.537642
321 1 0.95441 0.0398435 0.510649
447 2 0.916319 0.248315 0.510191
407 2 0.154707 0.432898 0.610677
17 1 0.061327 0.384894 0.670596
278 1 0.135698 0.334711 0.563889
289 1 0.0413265 0.439189 0.531077
39 1 0.166945 0.446499 0.743181
336 1 0.217053 0.333165 0.685125
51 1 0.424712 0.487046 0.681333
229 1 0.469509 0.265957 0.706831
290 1 0.296484 0.433111 0.606181
244 1 0.446146 0.358679 0.598964
276 1 0.389594 0.471749 0.510046
122 1 0.359215 0.349757 0.714289
265 1 0.264607 0.299566 0.548927
342 1 0.558724 0.371325 0.516628
179 1 0.679018 0.263559 0.546857
16 1 0.598129 0.318208 0.647335
32 1 0.662781 0.463089 0.693115
457 2 0.722578 0.351504 0.633699
77 1 0.531891 0.386529 0.742917
150 1 0.697311 0.418759 0.543407
232 1 0.545089 0.460213 0.620515
208 1 0.961934 0.283155 0.722047
85 1 0.831026 0.340623 0.689018
343 1 0.805647 0.471452 0.668954
323 1 0.995567 0.306574 0.570923
218 1 0.957129 0.419467 0.744871
468 2 0.934385 0.38514 0.637018
152 1 0.824258 0.346591 0.542849
134 1 0.911056 0.48144 0.583383
408 2 0.87905 0.49643 0.745156
299 1 0.124473 0.152873 0.76241
427 2 0.0386606 0.231022 0.786634
256 1 0.00306035 0.0660605 0.809525
199 1 0.13059 0.0586169 0.880025
70 1 0.0968737 0.191052 0.895615
75 1 0.243751 0.202631 0.83051
346 1 0.21165 0.11776 0.972164
465 2 0.0124495 0.0865638 0.94179
416 2 0.237053 0.00694608 0.834042
275 1 0.431559 0.117224 0.968803
125 1 0.42551 0.198247 0.841318
83 1 0.479569 0.089603 0.751422
361 1 0.322721 0.093036 0.861919
459 2 0.441495 0.0694056 0.856947
385 2 0.315164 0.0686816 0.981553
73 1 0.325657 0.224234 0.940646
442 2 0.539412 0.221769 0.790124
114 1 0.618927 0.0796927 0.761142
12 1 0.553346 0.155684 0.880472
216 1 0.637154 0.0331492 0.937292
317 1 0.672017 0.202291 0.816875
386 2 0.690875 0.131781 0.954674
279 1 0.742665 0.0773026 0.853689
186 1 0.637657 0.247039 0.965916
46 1 0.802417 0.244314 0.802236
379 1 0.788088 0.0418152 0.987325
42 1 0.779161 0.201236 0.94424
288 1 0.858577 0.0945893 0.774449
300 1 0.947335 0.190743 0.833037
102 1 0.895119 0.123546 0.936015
142 1 0.987042 0.229076 0.970032
178 1 0.226359 0.495239 0.89696
452 2 0.037763 0.469898 0.915692
312 1 0.193687 0.27179 0.934741
242 1 0.132389 0.305476 0.791464
445 2 0.0801595 0.310987 0.96292
298 1 0.127203 0.394898 0.890218
403 2 0.05694 0.422726 0.808173
239 1 0.00544741 0.327187 0.850881
172 1 0.482392 0.258323 0.968248
162 1 0.425068 0.498627 0.832396
405 2 0.342644 0.261442 0.78139
138 1 0.352006 0.439888 0.92445
420 2 0.350374 0.328924 0.960473
159 1 0.422153 0.332098 0.849924
144 1 0.263566 0.349754 0.823289
211 1 0.472102 0.394446 0.96535
245 1 0.304487 0.478286 0.761808
66 1 0.690828 0.341864 0.754845
44 1 0.651124 0.447379 0.834644
237 1 0.615697 0.414917 0.965501
477 2 0.526937 0.426469 0.844472
217 1 0.58126 0.308992 0.855531
212 1 0.737068 0.328044 0.900256
233 1 0.801032 0.428353 0.973137
129 1 0.983822 0.368083 0.99529
356 1 0.914935 0.424924 0.881557
448 2 0.889174 0.323337 0.810468
355 1 0.807723 0.419976 0.796143
48 1 0.871156 0.298745 0.931376
353 1 0.0689834 0.642785 0.0851163
322 1 0.146306 0.619116 0.207202
364 1 0.194443 0.716797 0.0791452
374 1 0.191984 0.569687 0.0579692
231 1 0.0122265 0.715667 0.190422
198 1 0.234722 0.510667 0.185127
359 1 0.249045 0.745815 0.219013
107 1 0.00879389 0.5727 0.223487
358 1 0.300279 0.633889 0.143023
383 1 0.388506 0.66077 0.0383445
119 1 0.413354 0.732727 0.177729
280 1 0.416625 0.572483 0.153793
466 2 0.462189 0.737895 0.00303834
339 1 0.521164 0.653497 0.228941
64 1 0.550797 0.553362 0.0607133
41 1 0.65841 0.627762 0.124869
147 1 0.531355 0.690863 0.102939
396 2 0.630929 0.7191 0.210203
131 1 0.564117 0.523469 0.204191
213 1 0.747632 0.700485 0.211632
124 1 0.685393 0.506633 0.0554506
14 1 0.726432 0.515524 0.21498
96 1 0.661729 0.653645 0.000112073
103 1 0.922795 0.643152 0.0796359
153 1 0.854855 0.606171 0.205358
397 2 0.996483 0.555933 0.0797649
261 1 0.7839 0.676541 0.0597394
366 1 0.814036 0.536947 0.0821301
436 2 0.884726 0.50077 0.242021
228 1 0.201546 0.871705 0.144086
293 1 0.0886653 0.809985 0.108778
246 1 0.0713059 0.912519 0.236728
36 1 0.0501447 0.942676 0.104857
423 2 0.142728 0.96502 0.165359
110 1 0.44777 0.966248 0.154002
174 1 0.318295 0.766611 0.0784774
332 1 0.351532 0.851552 0.188198
54 1 0.312745 0.908901 0.0503968
146 1 0.448193 0.838212 0.0854162
424 2 0.419386 0.938851 0.0279551
292 1 0.298216 0.988599 0.189495
417 2 0.452603 0.880347 0.247754
95 1 0.534047 0.794997 0.203144
371 1 0.748431 0.888734 0.0923533
183 1 0.578152 0.914603 0.116049
238 1 0.672729 0.776381 0.117696
349 1 0.70768 0.979161 0.198629
309 1 0.58333 0.779796 0.00731223
326 1 0.937657 0.986624 0.179689
428 2 0.765314 0.804189 0.190095
441 2 0.976707 0.757524 0.090706
120 1 0.856123 0.782669 0.0984677
81 1 0.974458 0.854865 0.0233932
392 2 0.884562 0.912158 0.10056
19 1 0.966857 0.841031 0.169865
376 1 0.833257 0.899389 0.211883
328 1 0.866489 0.770914 0.246836
243 1 0.069278 0.691196 0.468471
259 1 0.122163 0.509355 0.300508
395 2 0.208973 0.510227 0.387319
31 1 0.102246 0.652116 0.328779
329 1 0.0837766 0.546381 0.442019
302 1 0.231371 0.607828 0.321693
104 1 0.193299 0.628359 0.447883
206 1 0.228879 0.738825 0.365399
446 2 0.33518 0.538004 0.256481
348 1 0.326472 0.74985 0.474638
26 1 0.473149 0.555864 0.435192
182 1 0.362161 0.660042 0.286963
166 1 0.444249 0.54068 0.287612
191 1 0.465768 0.695612 0.386781
390 2 0.461123 0.738788 0.280473
351 1 0.329345 0.527406 0.37406
469 2 0.337394 0.656033 0.390542
404 2 0.534257 0.620613 0.336828
283 1 0.653763 0.614141 0.27227
155 1 0.593565 0.643905 0.430991
291 1 0.717508 0.619925 0.406449
432 2 0.713828 0.708531 0.322668
86 1 0.592928 0.734085 0.319708
440 2 0.700018 0.512488 0.4606
185 1 0.585533 0.518396 0.345139
455 2 0.975487 0.630823 0.480426
15 1 0.940064 0.526665 0.451148
248 1 0.978706 0.607309 0.358342
402 2 0.941459 0.670299 0.269794
472 2 0.754722 0.592345 0.295175
189 1 0.834994 0.669921 0.332445
286 1 0.84994 0.535976 0.346739
434 2 0.842883 0.623319 0.436478
1 1 0.909254 0.726216 0.42739
52 1 0.770758 0.722417 0.47332
271 1 0.209713 0.989048 0.443746
192 1 0.11778 0.787509 0.281113
401 2 0.119978 0.765083 0.393399
419 2 0.0528884 0.874696 0.356042
331 1 0.0251115 0.964711 0.417114
338 1 0.156518 0.871023 0.39614
106 1 0.22074 0.906021 0.279646
55 1 0.044722 0.840198 0.473699
118 1 0.437007 0.838313 0.466228
204 1 0.362688 0.926269 0.302196
112 1 0.365889 0.787042 0.34065
108 1 0.461659 0.952186 0.407954
380 1 0.282758 0.872721 0.431822
43 1 0.676302 0.837848 0.264274
221 1 0.568904 0.875877 0.482853
307 1 0.66445 0.804585 0.410902
345 1 0.612305 0.998173 0.411373
89 1 0.518588 0.843845 0.339579
421 2 0.676977 0.911493 0.463684
161 1 0.583955 0.947187 0.266922
475 2 0.549201 0.756801 0.4394
225 1 0.718421 0.939196 0.338862
207 1 0.787391 0.908204 0.480069
398 2 0.836208 0.92129 0.337372
171 1 0.937302 0.902723 0.301884
368 1 0.993118 0.765694 0.324046
82 1 0.793953 0.802277 0.356553
101 1 0.913322 0.869188 0.425542
431 2 0.115444 0.656688 0.568186
92 1 0.0178984 0.698842 0.630286
97 1 0.119116 0.637147 0.716894
168 1 0.010115 0.573229 0.570256
418 2 0.00219006 0.638665 0.738278
61 1 0.235784 0.660329 0.582868
11 1 0.151844 0.548022 0.601147
470 2 0.216984 0.557728 0.720212
274 1 0.0445435 0.520937 0.706493
310 1 0.238839 0.502539 0.501589
139 1 0.262472 0.673597 0.723007
10 1 0.376977 0.68914 0.629297
78 1 0.312573 0.560926 0.638236
23 1 0.467951 0.573434 0.567118
267 1 0.460066 0.709569 0.519621
382 1 0.349321 0.608415 0.50461
438 2 0.504658 0.589312 0.683408
340 1 0.520912 0.705516 0.647745
304 1 0.611955 0.601113 0.633399
478 2 0.671396 0.625336 0.520901
285 1 0.636869 0.715605 0.720086
226 1 0.628231 0.736202 0.533208
273 1 0.595517 0.521278 0.50021
479 2 0.693967 0.51789 0.595727
8 1 0.777086 0.592891 0.531316
45 1 0.759883 0.59139 0.684908
365 1 0.918571 0.585053 0.677284
230 1 0.758031 0.724393 0.60732
303 1 0.896135 0.66546 0.563725
115 1 0.905227 0.740577 0.693151
68 1 0.18301 0.760822 0.504512
84 1 0.019939 0.995554 0.64495
145 1 0.140106 0.754081 0.63309
330 1 0.1052 0.99447 0.526591
6 1 0.114915 0.891011 0.623468
399 2 0.00577006 0.921615 0.538064
170 1 0.235914 0.920418 0.56428
467 2 0.140735 0.884371 0.507554
241 1 0.244322 0.963447 0.696088
193 1 0.196572 0.830706 0.744204
294 1 0.437963 0.811682 0.633344
443 2 0.341509 0.855516 0.543825
263 1 0.28101 0.796469 0.633904
79 1 0.359318 0.912911 0.644572
74 1 0.473282 0.946924 0.573474
33 1 0.479958 0.93121 0.708675
344 1 0.352192 0.968933 0.510887
409 2 0.299904 0.864104 0.727415
266 1 0.568229 0.837162 0.614388
164 1 0.622864 0.955527 0.699725
236 1 0.702412 0.85312 0.601275
58 1 0.63584 0.986765 0.548667
388 2 0.970207 0.766897 0.532768
72 1 0.908537 0.965876 0.732331
140 1 0.984483 0.842439 0.6249
187 1 0.826061 0.863271 0.676117
80 1 0.899549 0.942484 0.587206
269 1 0.850351 0.799448 0.55464
406 2 0.923888 0.847495 0.731473
201 1 0.758045 0.992325 0.621489
224 1 0.00399443 0.723345 0.978969
335 1 0.105849 0.52609 0.839782
471 2 0.166598 0.719678 0.787856
305 1 0.0245601 0.586728 0.961615
148 1 0.20432 0.619941 0.83684
157 1 0.0548826 0.67356 0.849683
464 2 0.146061 0.573526 0.953453
136 1 0.142298 0.694016 0.951322
370 1 0.387268 0.667573 0.881775
287 1 0.388739 0.609444 0.750656
414 2 0.479102 0.590159 0.861494
281 1 0.271311 0.741312 0.857498
476 2 0.321776 0.541449 0.876638
181 1 0.43707 0.542666 0.974885
378 1 0.272279 0.61479 0.962287
173 1 0.542598 0.516971 0.760026
194 1 0.528082 0.656341 0.788562
240 1 0.669004 0.591492 0.794703
160 1 0.719433 0.543207 0.919024
88 1 0.517441 0.65593 0.964565
209 1 0.641757 0.724329 0.878866
40 1 0.578054 0.546492 0.905825
463 2 0.738458 0.505582 0.77252
474 2 0.827317 0.526459 0.900531
318 1 0.780482 0.677204 0.895749
2 1 0.772979 0.726163 0.766058
98 1 0.927265 0.702345 0.833375
25 1 0.967435 0.538439 0.816455
360 1 0.89188 0.614432 0.943533
249 1 0.831427 0.584744 0.804807
91 1 0.0503366 0.777839 0.7545
306 1 0.23529 0.812959 0.975445
132 1 0.246408 0.985315 0.945499
425 2 0.0879137 0.796316 0.991589
5 1 0.0167293 0.963503 0.928347
327 1 0.113636 0.811424 0.877649
76 1 0.0293161 0.910406 0.782416
296 1 0.156022 0.929854 0.836198
197 1 0.140678 0.915218 0.995334
334 1 0.366812 0.97933 0.77539
87 1 0.390889 0.976681 0.925505
175 1 0.371345 0.75724 0.752147
13 1 0.381851 0.813315 0.95014
99 1 0.291725 0.887102 0.859137
367 1 0.432901 0.87024 0.824567
254 1 0.515799 0.988619 0.861397
413 2 0.734318 0.799159 0.860772
18 1 0.50057 0.754611 0.888999
71 1 0.509453 0.890026 0.968428
30 1 0.529381 0.797286 0.751027
247 1 0.74887 0.91556 0.887483
272 1 0.605514 0.869184 0.853754
214 1 0.700707 0.844614 0.763697
429 2 0.672158 0.981152 0.83915
324 1 0.730484 0.787908 0.976661
29 1 0.647105 0.90945 0.992394
363 1 0.839912 0.900243 0.99046
143 1 0.86521 0.98722 0.860216
137 1 0.770303 0.970713 0.761521
337 1 0.843745 0.840647 0.824966
158 1 0.966484 0.829807 0.88659
200 1 0.873917 0.754451 0.973718
ITEM: TIMESTEP
100000
ITEM: NUMBER OF ATOMS
480
ITEM: BOX BOUNDS pp pp pp
0.0000000000000000e+00 7.3680629972807701e+00
0.0000000000000000e+00 7.3680629972807701e+00
0.0000000000000000e+00 7.3680629972807701e+00
ITEM: ATOMS id type xs ys zs
34 1 0.159706 0.150523 0.102836
480 2 0.255252 0.0916986 0.0505273
372 1 0.0707482 0.0398229 0.142564
264 1 0.209086 0.0644439 0.218449
377 1 0.162861 0.222322 0.236336
93 1 0.0566811 0.225767 0.0474714
57 1 0.858653 0.461908 0.0316574
62 1 0.280034 0.184872 0.172714
127 1 0.321007 0.04645 0.141775
394 2 0.37759 0.158647 0.113563
204 1 0.44546 0.0803316 0.188724
203 1 0.419957 0.217543 0.204076
71 1 0.430189 0.0663135 0.0384737
260 1 0.458366 0.201946 0.0450672
400 2 0.538224 0.056851 0.10935
27 1 0.541044 0.189627 0.149797
63 1 0.696447 0.157172 0.158888
87 1 0.602162 0.119464 0.043819
21 1 0.57887 0.0419689 0.234593
186 1 0.775738 0.205383 0.0415156
113 1 0.643065 0.24853 0.0717554
430 2 0.774673 0.249466 0.151941
270 1 0.733799 0.0599633 0.0632965
156 1 0.0300766 0.194482 0.173236
28 1 0.829843 0.144388 0.173823
4 1 0.87341 0.0544062 0.0639997
50 1 0.914674 0.212896 0.0513206
169 1 0.953849 0.0757101 0.207687
314 1 0.216669 0.319276 0.0813701
389 2 0.128895 0.393108 0.050556
177 1 0.180414 0.43586 0.150557
234 1 0.0975879 0.318074 0.14355
301 1 0.0149205 0.403169 0.227998
7 1 0.0556588 0.462273 0.113178
105 1 0.14596 0.381943 0.286562
462 2 0.59929 0.363214 0.408095
64 1 0.486035 0.475741 0.0648746
277 1 0.490238 0.345239 0.0117079
217 1 0.37006 0.296396 0.0890229
252 1 0.431362 0.382215 0.188359
253 1 0.277562 0.33538 0.217828
476 2 0.390285 0.421623 0.0193265
354 1 0.318753 0.430983 0.111639
463 2 0.484059 0.294257 0.131637
95 1 0.635838 0.493973 0.162599
94 1 0.561807 0.376282 0.141306
41 1 0.704428 0.370834 0.10477
428 2 0.606643 0.440423 0.0650907
282 1 0.641237 0.277116 0.21264
444 2 0.669667 0.391964 0.219202
426 2 0.951648 0.463902 0.307975
48 1 0.920895 0.283548 0.172503
227 1 0.792279 0.346453 0.210945
369 1 0.832774 0.337772 0.0888475
300 1 0.970891 0.35676 0.0634847
149 1 0.911468 0.432733 0.157873
233 1 0.906676 0.359143 0.289573
150 1 0.719671 0.304861 0.483411
384 1 0.0727835 0.00972578 0.39188
259 1 0.070752 0.108685 0.282128
135 1 0.0250623 0.156532 0.408513
196 1 0.192826 0.120538 0.345726
256 1 0.0557162 0.0927559 0.0117085
207 1 0.556839 0.029488 0.479505
100 1 0.228622 0.274621 0.470905
111 1 0.165845 0.150956 0.477672
292 1 0.345799 0.104061 0.273317
128 1 0.46042 0.0620694 0.356437
271 1 0.32604 0.104058 0.416887
458 2 0.417314 0.171812 0.343621
362 1 0.271502 0.223421 0.328558
133 1 0.506288 0.173603 0.43388
250 1 0.373481 0.239713 0.428055
151 1 0.519233 0.16256 0.283556
454 2 0.641146 0.161796 0.270854
220 1 0.60589 0.0928907 0.364627
297 1 0.728992 0.0846923 0.297358
56 1 0.715028 0.0359141 0.451219
90 1 0.615156 0.240362 0.357962
325 1 0.735676 0.171717 0.416266
451 2 0.951782 0.247555 0.392255
235 1 0.960499 0.0413083 0.47837
284 1 0.922694 0.18865 0.294052
352 1 0.761384 0.219638 0.279353
375 1 0.841804 0.0801052 0.382318
411 2 0.96352 0.0842725 0.334708
59 1 0.895119 0.167158 0.465698
402 2 0.842179 0.0694725 0.265373
153 1 0.785061 0.480179 0.149585
464 2 0.0921769 0.250297 0.477862
38 1 0.993728 0.366141 0.38738
455 2 0.112662 0.491601 0.230715
257 1 0.138209 0.241399 0.36955
289 1 0.119774 0.365779 0.437677
222 1 0.0350361 0.27605 0.291339
141 1 0.0571408 0.488153 0.337228
165 1 0.253021 0.357245 0.363407
350 1 0.846685 0.281616 0.39795
126 1 0.342163 0.431375 0.271129
202 1 0.380536 0.301164 0.30405
154 1 0.382484 0.39544 0.416284
439 2 0.452408 0.400314 0.309942
313 1 0.511005 0.443945 0.434225
58 1 0.490727 0.312669 0.39429
410 2 0.823954 0.0676844 0.49881
215 1 0.506808 0.493359 0.213048
47 1 0.701698 0.478312 0.288831
131 1 0.568355 0.422731 0.305643
280 1 0.668902 0.449073 0.421851
180 1 0.707443 0.338011 0.324682
167 1 0.51077 0.291295 0.254642
166 1 0.814667 0.418284 0.384478
265 1 0.16945 0.489356 0.39972
9 1 0.205359 0.0114377 0.452095
447 2 0.0700623 0.0773913 0.500011
361 1 0.316179 0.174818 0.0147645
49 1 0.579719 0.284076 0.497062
440 2 0.750698 0.415196 0.49547
20 1 0.15514 0.155428 0.714878
258 1 0.156181 0.0792182 0.602515
424 2 0.252436 0.0763727 0.668652
37 1 0.0319426 0.162699 0.567255
84 1 0.0837378 0.0221529 0.738044
255 1 0.267201 0.182666 0.633169
170 1 0.285832 0.0702449 0.552763
69 1 0.403433 0.16533 0.561618
456 2 0.379387 0.164652 0.687718
75 1 0.370715 0.285543 0.669793
219 1 0.573683 0.482032 0.965174
33 1 0.361487 0.0357932 0.667996
176 1 0.304529 0.136949 0.764977
53 1 0.871254 0.37987 0.503314
117 1 0.48787 0.0955306 0.639908
347 1 0.518976 0.227843 0.615375
114 1 0.65428 0.159536 0.651969
179 1 0.581002 0.0966975 0.759037
65 1 0.60009 0.016916 0.624845
437 2 0.688572 0.0529557 0.696415
229 1 0.607087 0.262651 0.743645
208 1 0.977147 0.122617 0.692984
468 2 0.720476 0.236799 0.696954
123 1 0.888279 0.0843841 0.596038
163 1 0.801728 0.154958 0.691019
152 1 0.894482 0.226989 0.610799
3 1 0.774432 0.162025 0.560349
473 2 0.832372 0.26112 0.517163
330 1 0.0280674 0.255386 0.680181
15 1 0.0707443 0.385149 0.589923
242 1 0.144777 0.259015 0.592171
312 1 0.131666 0.365523 0.733856
210 1 0.222508 0.369894 0.625988
433 2 0.165207 0.483915 0.546134
335 1 0.10455 0.487984 0.809397
438 2 0.282 0.472463 0.612988
35 1 0.337333 0.326361 0.538865
138 1 0.265512 0.417415 0.98698
77 1 0.377895 0.424838 0.669029
342 1 0.465729 0.36244 0.562655
144 1 0.242769 0.276275 0.737386
72 1 0.884876 0.0074788 0.745794
232 1 0.530708 0.453165 0.648709
184 1 0.655644 0.290761 0.614461
121 1 0.599098 0.423886 0.533128
22 1 0.960881 0.489046 0.832473
66 1 0.49316 0.327555 0.717594
85 1 0.684876 0.426336 0.631319
316 1 0.753039 0.329587 0.741819
333 1 0.640045 0.147251 0.521288
124 1 0.764663 0.379705 0.969639
274 1 0.010219 0.459006 0.702457
221 1 0.42444 0.0406797 0.505603
357 1 0.782149 0.332296 0.601204
323 1 0.938334 0.367512 0.642439
343 1 0.821718 0.461311 0.624961
218 1 0.898733 0.259486 0.750198
403 2 0.841901 0.383372 0.714599
42 1 0.980022 0.286729 0.938455
73 1 0.194094 0.198718 0.957855
54 1 0.19341 0.0524201 0.953826
427 2 0.205791 0.169011 0.830484
17 1 0.0110865 0.210563 0.820339
199 1 0.209032 0.0365324 0.798065
299 1 0.109269 0.117915 0.849766
465 2 0.0785422 0.190985 0.941574
160 1 0.77586 0.471379 0.759921
132 1 0.292771 0.241672 0.872453
190 1 0.430862 0.082217 0.805495
125 1 0.430912 0.217264 0.898234
405 2 0.375746 0.239409 0.781651
334 1 0.322876 0.0906326 0.894613
434 2 0.990061 0.411577 0.506433
355 1 0.824886 0.253737 0.920149
311 1 0.989681 0.443613 0.957351
341 1 0.481769 0.195672 0.754627
317 1 0.676809 0.0256374 0.94232
393 2 0.649431 0.0777013 0.844589
212 1 0.688963 0.166821 0.941666
295 1 0.542295 0.104781 0.911296
442 2 0.598726 0.212126 0.844879
12 1 0.559751 0.237154 0.950274
60 1 0.705086 0.160428 0.792471
445 2 0.886507 0.373207 0.972013
448 2 0.787858 0.250474 0.812934
24 1 0.984609 0.0674139 0.828456
46 1 0.863852 0.132143 0.822137
102 1 0.944153 0.142095 0.94643
143 1 0.758444 0.0309979 0.824409
279 1 0.807588 0.0892592 0.944889
374 1 0.139477 0.455755 0.944478
290 1 0.258181 0.431314 0.75663
298 1 0.00481691 0.354055 0.788164
239 1 0.134213 0.253335 0.824534
397 2 0.104568 0.364854 0.856697
142 1 0.124151 0.314857 0.965078
386 2 0.242198 0.302719 0.968741
70 1 0.217147 0.371186 0.865709
346 1 0.369413 0.353591 0.811988
460 2 0.338597 0.453824 0.859118
275 1 0.36836 0.325767 0.954458
159 1 0.43795 0.446846 0.91771
336 1 0.461304 0.460633 0.778325
45 1 0.681916 0.452966 0.88462
474 2 0.702601 0.273061 0.978554
39 1 0.175474 0.493537 0.662085
459 2 0.425456 0.109205 0.932777
457 2 0.763676 0.391785 0.85088
44 1 0.545208 0.339543 0.854551
32 1 0.688012 0.295001 0.868764
244 1 0.622294 0.408936 0.762334
356 1 0.878595 0.369622 0.854974
237 1 0.625797 0.35905 0.978496
321 1 0.0165967 0.0061232 0.621448
201 1 0.748867 0.0255996 0.583177
278 1 0.970451 0.29081 0.523113
415 2 0.281005 0.176887 0.509624
122 1 0.369488 0.467443 0.535934
391 2 0.874455 0.0247436 0.870524
412 2 0.460436 0.25966 0.510545
262 1 0.951917 0.00686391 0.95063
366 1 0.820512 0.497427 0.906436
320 1 0.243091 0.415722 0.503187
103 1 0.166206 0.588585 0.146724
364 1 0.162602 0.689411 0.0287892
293 1 0.144613 0.714158 0.187446
31 1 0.000961995 0.692774 0.242689
200 1 0.0305124 0.680012 0.106096
378 1 0.213917 0.552078 0.0245794
349 1 0.627953 0.975564 0.119303
385 2 0.256369 0.523261 0.162386
198 1 0.254265 0.651118 0.244927
353 1 0.300653 0.638135 0.110838
206 1 0.397473 0.687025 0.202269
67 1 0.371872 0.543836 0.186942
261 1 0.712422 0.505517 0.0239331
40 1 0.442547 0.624118 0.0824794
168 1 0.059288 0.510968 0.480603
446 2 0.499188 0.733703 0.153318
172 1 0.531114 0.626464 0.201273
358 1 0.62512 0.718117 0.153066
181 1 0.586573 0.591683 0.06365
238 1 0.711585 0.608351 0.150946
390 2 0.629132 0.587755 0.242073
161 1 0.752791 0.733746 0.235079
370 1 0.525544 0.711169 0.0265164
373 1 0.938682 0.504719 0.416393
174 1 0.26347 0.790064 0.0243826
248 1 0.984303 0.545151 0.234089
14 1 0.85258 0.626156 0.184125
129 1 0.943614 0.566309 0.1018
371 1 0.780385 0.720083 0.0856008
120 1 0.816255 0.59788 0.0352827
283 1 0.839842 0.506112 0.273024
441 2 0.100918 0.925181 0.116195
106 1 0.0369162 0.839812 0.15314
36 1 0.168009 0.839231 0.112799
359 1 0.181357 0.91951 0.224821
332 1 0.199156 0.992118 0.0982323
246 1 0.0446403 0.961732 0.258479
228 1 0.0766713 0.959648 0.00935635
286 1 0.82019 0.520492 0.490546
116 1 0.307042 0.525658 0.403795
399 2 0.73546 0.901026 0.435546
417 2 0.301278 0.850164 0.26034
147 1 0.392102 0.771878 0.0698497
119 1 0.288775 0.762059 0.176407
110 1 0.304289 0.899658 0.134693
112 1 0.416061 0.834425 0.206626
195 1 0.493566 0.94675 0.135602
380 1 0.380561 0.964186 0.249347
80 1 0.833209 0.955712 0.480723
183 1 0.555137 0.836343 0.0835527
109 1 0.71705 0.838017 0.14283
254 1 0.548868 0.969254 0.00534168
376 1 0.681748 0.954065 0.241116
223 1 0.581588 0.844961 0.217267
396 2 0.644665 0.77775 0.0311872
251 1 0.42824 0.902804 0.0258644
225 1 0.777544 0.955189 0.345763
461 2 0.74371 0.954068 0.106324
348 1 0.372563 0.83593 0.499216
231 1 0.910973 0.763755 0.148812
449 2 0.983482 0.802215 0.0434497
401 2 0.917348 0.896287 0.181585
379 1 0.852488 0.870218 0.0876983
192 1 0.829655 0.850267 0.234004
326 1 0.966266 0.956638 0.0993199
19 1 0.905526 0.725164 0.00231628
107 1 0.106436 0.606109 0.268512
387 2 0.151798 0.573708 0.468985
322 1 0.0834439 0.74643 0.352544
11 1 0.208629 0.6293 0.377323
1 1 0.993787 0.62996 0.360458
329 1 0.0838902 0.666146 0.469294
26 1 0.443717 0.577609 0.456587
395 2 0.325719 0.547347 0.291228
118 1 0.436757 0.733095 0.4214
351 1 0.36041 0.63802 0.343976
443 2 0.306545 0.638279 0.445943
404 2 0.331855 0.736355 0.290171
13 1 0.312668 0.996669 0.0077824
475 2 0.478534 0.638856 0.367395
338 1 0.260982 0.97377 0.321116
226 1 0.772034 0.731774 0.380883
86 1 0.624195 0.708277 0.294744
155 1 0.571125 0.691275 0.421775
339 1 0.576632 0.56285 0.338189
189 1 0.715946 0.618195 0.442925
43 1 0.743412 0.611372 0.29857
101 1 0.995564 0.898165 0.407477
213 1 0.879819 0.709869 0.291524
472 2 0.903471 0.595579 0.29309
368 1 0.941317 0.745288 0.415469
269 1 0.851245 0.615587 0.39318
432 2 0.772887 0.527184 0.373679
82 1 0.849115 0.846561 0.386321
398 2 0.909036 0.97389 0.392819
188 1 0.907963 0.964468 0.275586
419 2 0.0979684 0.826514 0.254322
418 2 0.175419 0.774585 0.423032
310 1 0.210719 0.783531 0.298687
243 1 0.0751249 0.813867 0.480188
268 1 0.143476 0.891939 0.367726
92 1 0.228558 0.870309 0.487399
469 2 0.259 0.861633 0.376658
96 1 0.678419 0.674183 0.0110476
191 1 0.489644 0.745456 0.287511
263 1 0.344893 0.958499 0.423389
276 1 0.294592 0.746703 0.402432
302 1 0.381578 0.834478 0.346171
104 1 0.491143 0.909339 0.448465
108 1 0.511941 0.935338 0.296634
171 1 0.971359 0.831958 0.278392
315 1 0.216536 0.507993 0.269116
365 1 0.689131 0.795073 0.463872
328 1 0.708655 0.835825 0.324845
345 1 0.635691 0.951438 0.386852
89 1 0.569651 0.822997 0.370507
182 1 0.443788 0.514671 0.338822
224 1 0.0693293 0.567054 0.0131071
185 1 0.579394 0.5664 0.481396
423 2 0.151167 0.997411 0.299786
319 1 0.679985 0.886459 0.0218814
308 1 0.830259 0.989302 0.176395
81 1 0.0887108 0.813322 0.0056981
61 1 0.136979 0.605345 0.589857
97 1 0.119171 0.621945 0.729943
327 1 0.0268132 0.751298 0.73329
431 2 0.19933 0.68408 0.657408
452 2 0.0113286 0.579291 0.743449
414 2 0.4116 0.679233 0.980098
140 1 0.0927701 0.730043 0.600875
407 2 0.0583818 0.5188 0.601545
216 1 0.798667 0.956859 0.988453
23 1 0.254127 0.552938 0.516646
51 1 0.270346 0.585345 0.64584
382 1 0.367799 0.661839 0.553151
10 1 0.330209 0.694409 0.705727
304 1 0.428703 0.557939 0.634774
478 2 0.445754 0.674729 0.657498
266 1 0.505067 0.667174 0.551335
249 1 0.566177 0.598065 0.64874
16 1 0.701824 0.553679 0.578403
291 1 0.729392 0.679946 0.655229
214 1 0.642913 0.683397 0.543704
408 2 0.754887 0.574445 0.685256
178 1 0.259516 0.528506 0.888448
388 2 0.988345 0.752125 0.533906
55 1 0.904265 0.835881 0.507342
25 1 0.00377774 0.629037 0.641668
134 1 0.837603 0.612138 0.597548
337 1 0.914769 0.727481 0.609802
416 2 0.258734 0.973639 0.897567
6 1 0.0791111 0.883491 0.738286
68 1 0.169408 0.854257 0.622948
467 2 0.113822 0.947216 0.655344
331 1 0.0206264 0.854541 0.605167
409 2 0.264825 0.845502 0.689728
344 1 0.243861 0.963701 0.693418
479 2 0.549967 0.526304 0.737249
294 1 0.278648 0.776002 0.602867
267 1 0.4292 0.776241 0.619687
74 1 0.457799 0.92638 0.585897
79 1 0.382123 0.869617 0.709183
193 1 0.314071 0.920161 0.587065
78 1 0.212881 0.688304 0.506318
429 2 0.490355 0.842377 0.710019
236 1 0.505776 0.975309 0.730789
307 1 0.543468 0.79974 0.513419
164 1 0.650496 0.957599 0.74239
2 1 0.556173 0.735056 0.671572
421 2 0.647235 0.792906 0.581806
285 1 0.582003 0.870058 0.637136
209 1 0.69449 0.816756 0.697766
422 2 0.691642 0.92933 0.632662
8 1 0.947749 0.509419 0.574829
130 1 0.83632 0.907121 0.859387
425 2 0.984911 0.933796 0.713162
187 1 0.761148 0.848622 0.582554
450 2 0.806164 0.761926 0.67149
247 1 0.782581 0.914044 0.716704