ITEM: TIMESTEP
0
ITEM: NUMBER OF ATOMS
480
ITEM: BOX BOUNDS pp pp pp
0.0000000000000000e+00 7.3680629972807701e+00
0.0000000000000000e+00 7.3680629972807701e+00
0.0000000000000000e+00 7.3680629972807701e+00
ITEM: ATOMS id type xs ys zs
326 1 0.178966 0.205842 0.149906
368 1 0.198229 0.0657416 0.12097
372 1 0.0397372 0.239184 0.211716
441 2 0.0688091 0.170524 0.126069
62 1 0.105441 0.100791 0.21918
182 1 0.00806088 0.229574 0.0352194
102 1 0.140161 0.171266 0.0152738
473 2 0.219303 0.128971 0.23038
346 1 0.0557787 0.0219925 0.113511
133 1 0.319257 0.0954603 0.165694
13 1 0.27229 0.154507 0.0424359
480 2 0.373409 0.165516 0.101024
165 1 0.314838 0.238696 0.193139
283 1 0.439239 0.156995 0.228738
285 1 0.380308 0.0505639 0.0514767
300 1 0.482607 0.118759 0.0930403
7 1 0.496602 0.229151 0.00505366
168 1 0.435648 0.00788079 0.173172
455 2 0.59112 0.0476508 0.103485
428 2 0.572842 0.211934 0.119795
297 1 0.700749 0.076267 0.106701
456 2 0.699158 0.189061 0.0770271
151 1 0.570234 0.134484 0.198005
282 1 0.680074 0.217721 0.179104
31 1 0.723902 0.105116 0.243569
130 1 0.613208 0.145444 0.0206528
98 1 0.95191 0.128986 0.141781
452 2 0.804724 0.0477045 0.0485285
246 1 0.81442 0.148945 0.138075
419 2 0.930507 0.207234 0.243595
373 1 0.890451 0.147087 0.0174837
66 1 0.786762 0.245183 0.0307681
350 1 0.815994 0.0105918 0.178747
382 1 0.954218 0.0194891 0.22024
253 1 0.919335 0.003477 0.0775506
400 2 0.215667 0.273922 0.0496284
467 2 0.180593 0.394336 0.0289143
411 2 0.0177935 0.351795 0.183801
293 1 0.0946396 0.305039 0.109784
69 1 0.236184 0.336615 0.133608
180 1 0.136288 0.4389 0.129902
365 1 0.00494493 0.463147 0.205412
116 1 0.213306 0.475186 0.241953
104 1 0.196197 0.499401 0.0103139
353 1 0.304949 0.398104 0.0216865
237 1 0.276888 0.493124 0.115084
27 1 0.472814 0.271793 0.158521
257 1 0.476688 0.378881 0.0539533
118 1 0.365257 0.375979 0.162138
172 1 0.356427 0.273976 0.0632374
472 2 0.518896 0.483144 0.220891
430 2 0.656879 0.496057 0.106144
252 1 0.619246 0.288357 0.0560337
223 1 0.586518 0.402653 0.165922
173 1 0.715986 0.38628 0.101808
263 1 0.599981 0.439356 0.0223804
150 1 0.716091 0.403216 0.24826
379 1 0.739986 0.49234 0.015823
406 2 0.897572 0.265031 0.00117798
224 1 0.902228 0.259552 0.129968
233 1 0.847168 0.380766 0.0428072
421 2 0.786185 0.301215 0.128049
115 1 0.977592 0.379187 0.0904534
352 1 0.854893 0.396008 0.182395
50 1 0.800684 0.260246 0.230627
466 2 0.947884 0.45612 0.00499492
298 1 0.909514 0.497325 0.106872
170 1 0.20918 0.0588331 0.484798
407 2 0.0968974 0.0796245 0.416443
345 1 0.116011 0.197825 0.425015
56 1 0.170799 0.227702 0.294324
348 1 0.181158 0.104193 0.347723
84 1 0.029786 0.127539 0.330319
454 2 0.00159566 0.00912853 0.396395
398 2 0.499734 0.238189 0.273025
148 1 0.426745 0.0372893 0.315467
271 1 0.332988 0.0374455 0.421889
377 1 0.260385 0.23093 0.404434
251 1 0.309853 0.140273 0.307637
97 1 0.409801 0.171532 0.423074
51 1 0.287427 0.00754268 0.279695
443 2 0.512557 0.0559808 0.250569
105 1 0.531922 0.145255 0.345881
444 2 0.715587 0.160716 0.457978
203 1 0.643994 0.0830526 0.434624
369 1 0.664451 0.207387 0.356011
426 2 0.514165 0.15431 0.468859
307 1 0.617745 0.0358787 0.306279
126 1 0.51031 0.0489269 0.439734
184 1 0.615181 0.215567 0.492644
313 1 0.873862 7.48407e-05 0.358732
453 2 0.785601 0.0232447 0.284322
14 1 0.861118 0.122121 0.269457
333 1 0.972421 0.189468 0.453704
401 2 0.779506 0.196229 0.327582
204 1 0.88819 0.234994 0.354635
137 1 0.765998 0.0918684 0.381634
463 2 0.88809 0.111523 0.406946
59 1 0.947352 0.0421836 0.499803
268 1 0.818609 0.00333805 0.483344
163 1 0.831319 0.154696 0.48873
423 2 0.0925258 0.417457 0.464625
113 1 0.0293953 0.276776 0.348658
433 2 0.106213 0.485287 0.292009
48 1 0.0192297 0.320466 0.485629
250 1 0.149623 0.343359 0.399782
41 1 0.0245314 0.414525 0.34777
141 1 0.115483 0.357751 0.252753
394 2 0.228747 0.434419 0.355541
11 1 0.215932 0.431384 0.497832
220 1 0.369345 0.279205 0.310306
154 1 0.481012 0.371897 0.251219
315 1 0.250381 0.336837 0.283761
380 1 0.312723 0.372191 0.4059
341 1 0.352877 0.441849 0.285949
64 1 0.454469 0.415197 0.379569
219 1 0.400221 0.305495 0.4906
37 1 0.385389 0.467282 0.492285
287 1 0.51562 0.274744 0.386683
405 2 0.718454 0.303139 0.317439
371 1 0.7127 0.39041 0.388655
276 1 0.58661 0.429017 0.317479
225 1 0.605622 0.355334 0.454514
94 1 0.600584 0.288175 0.269436
403 2 0.746842 0.473715 0.465342
347 1 0.627629 0.497022 0.447243
114 1 0.836957 0.365009 0.328806
286 1 0.989476 0.467291 0.473626
144 1 0.833281 0.401388 0.462376
412 2 0.919291 0.345139 0.415444
323 1 0.944039 0.325605 0.263266
418 2 0.926377 0.440852 0.290455
342 1 0.778687 0.273124 0.424602
17 1 0.0654145 0.101777 0.531562
222 1 0.165655 0.0594466 0.622797
457 2 0.178219 0.166146 0.532164
35 1 0.202276 0.191862 0.641249
299 1 0.0675104 0.136285 0.69136
208 1 0.0870913 0.22678 0.576502
358 1 0.320094 0.141168 0.53628
34 1 0.420442 0.191682 0.697715
117 1 0.312013 0.0816691 0.667985
256 1 0.441623 0.0441632 0.577015
431 2 0.295747 0.184163 0.734009
215 1 0.466339 0.189369 0.560768
296 1 0.584139 0.0824568 0.561343
312 1 0.654492 0.0678488 0.702177
121 1 0.554737 0.215254 0.688328
470 2 0.624775 0.181634 0.599767
316 1 0.710039 0.202409 0.689774
236 1 0.721845 0.102252 0.558422
229 1 0.505437 0.0760517 0.706379
247 1 0.735461 0.24558 0.558798
427 2 0.816202 0.16772 0.608107
91 1 0.881796 0.0657241 0.623128
331 1 0.951727 0.18338 0.616994
179 1 0.794894 0.0936827 0.733359
15 1 0.195742 0.289095 0.529794
53 1 0.200317 0.490104 0.650682
189 1 0.0918473 0.383548 0.582773
111 1 0.246469 0.353503 0.649154
391 2 0.135015 0.289257 0.678533
375 1 0.13326 0.386492 0.728089
122 1 0.0211347 0.28477 0.685224
242 1 0.33697 0.254958 0.609557
387 2 0.304386 0.349399 0.530528
159 1 0.356535 0.414666 0.60966
214 1 0.460329 0.311058 0.620788
451 2 0.435047 0.444205 0.68485
162 1 0.373949 0.339608 0.730969
77 1 0.673041 0.464773 0.737993
344 1 0.637252 0.47608 0.601545
477 2 0.60349 0.318504 0.71672
86 1 0.613246 0.317621 0.600474
128 1 0.54769 0.413702 0.694324
289 1 0.724809 0.341583 0.67086
355 1 0.505278 0.428322 0.549524
458 2 0.523988 0.305311 0.517056
393 2 0.741907 0.449963 0.650126
152 1 0.713846 0.390903 0.535769
343 1 0.844717 0.485423 0.572572
218 1 0.997897 0.433464 0.731084
413 2 0.818734 0.347629 0.584923
70 1 0.869647 0.28477 0.666593
239 1 0.956936 0.392726 0.597406
16 1 0.843395 0.410282 0.698027
82 1 0.885156 0.274614 0.524994
20 1 0.0211554 0.0242971 0.753857
21 1 0.135998 0.0479637 0.954882
356 1 0.062729 0.117931 0.854908
132 1 0.207009 0.0973689 0.76341
47 1 0.186558 0.19232 0.888786
436 2 0.0732883 0.20094 0.925379
320 1 0.101685 0.235044 0.785363
235 1 0.00408621 0.0919244 0.989656
260 1 0.361919 0.0461038 0.792842
445 2 0.483617 0.0335424 0.832545
54 1 0.382732 0.15447 0.960523
127 1 0.465551 0.147352 0.828675
149 1 0.345031 0.222482 0.830449
190 1 0.274578 0.0788113 0.898435
292 1 0.387902 0.00441478 0.916492
384 1 0.746938 0.109924 0.9794
317 1 0.507457 0.0853729 0.947472
475 2 0.576494 0.155875 0.78115
30 1 0.599637 0.0481922 0.825946
83 1 0.68348 0.163344 0.814989
265 1 0.570328 0.213367 0.886598
389 2 0.649864 0.119697 0.9125
4 1 0.69461 0.227356 0.931365
349 1 0.734959 0.0258965 0.857166
147 1 0.643342 0.0281835 0.987489
278 1 0.927354 0.16687 0.760805
63 1 0.958382 0.204739 0.895171
178 1 0.88097 0.0273596 0.818527
22 1 0.819692 0.147444 0.871241
402 2 0.916707 0.0874486 0.916004
459 2 0.164144 0.30393 0.864503
103 1 0.122083 0.298434 0.975512
57 1 0.08003 0.377674 0.866088
125 1 0.248204 0.309149 0.789387
280 1 0.211479 0.398297 0.905142
29 1 0.075556 0.432157 0.99595
142 1 0.122374 0.499738 0.80525
360 1 0.258963 0.453137 0.775096
314 1 0.430913 0.452974 0.805773
138 1 0.473937 0.458233 0.937146
156 1 0.276303 0.276459 0.941794
217 1 0.415398 0.327865 0.917956
245 1 0.339381 0.473059 0.917111
404 2 0.333695 0.371527 0.84245
175 1 0.641358 0.317978 0.823918
262 1 0.673322 0.47237 0.898191
301 1 0.546798 0.349645 0.932761
335 1 0.570494 0.434736 0.827427
74 1 0.500091 0.293968 0.778644
18 1 0.721174 0.360682 0.958027
357 1 0.951211 0.314509 0.804783
124 1 0.762871 0.391877 0.827475
44 1 0.844812 0.480987 0.944001
193 1 0.979646 0.483357 0.885964
181 1 0.969659 0.352264 0.949262
261 1 0.842528 0.307979 0.902061
75 1 0.791488 0.264268 0.782509
61 1 0.173194 0.61199 0.0884345
414 2 0.166171 0.678236 0.188298
305 1 0.0354573 0.543046 0.0693277
2 1 0.104681 0.567425 0.202794
67 1 0.058393 0.691637 0.153611
288 1 0.0365539 0.681266 0.0211343
354 1 0.269615 0.616213 0.196527
110 1 0.356294 0.630549 0.060019
155 1 0.398979 0.679987 0.176512
416 2 0.469703 0.603168 0.0921409
359 1 0.495556 0.72032 0.085896
153 1 0.260552 0.728039 0.112331
176 1 0.401571 0.531751 0.192286
303 1 0.395639 0.500576 0.0456679
212 1 0.549809 0.631571 0.20244
39 1 0.629262 0.728886 0.0468764
177 1 0.702795 0.647706 0.217762
73 1 0.629319 0.605921 0.0941687
318 1 0.517297 0.505525 0.11284
311 1 0.638871 0.524756 0.211839
468 2 0.995276 0.567154 0.172423
183 1 0.763088 0.645784 0.0850985
364 1 0.882714 0.543427 0.228271
195 1 0.912708 0.633279 0.119051
409 2 0.828209 0.64543 0.182837
272 1 0.887835 0.728532 0.0184816
308 1 0.757038 0.520857 0.155788
435 2 0.819851 0.553539 0.0611743
33 1 0.156118 0.807978 0.187033
143 1 0.15179 0.907829 0.0761089
328 1 0.00199836 0.801396 0.0974077
228 1 0.152021 0.765867 0.0218201
119 1 0.175993 0.957726 0.202881
465 2 0.24916 0.840516 0.132033
363 1 0.0117246 0.904019 0.0126816
325 1 0.0502087 0.90226 0.184987
244 1 0.4892 0.764254 0.230095
106 1 0.376236 0.812716 0.111774
461 2 0.349396 0.785119 0.218993
194 1 0.303356 0.941752 0.128138
309 1 0.274478 0.862905 0.24836
90 1 0.408022 0.888578 0.23332
164 1 0.415841 0.910321 0.0243887
161 1 0.2668 0.84832 0.0151144
36 1 0.259154 0.990673 0.00881988
19 1 0.637038 0.78381 0.167867
367 1 0.748018 0.947279 0.0307561
5 1 0.524107 0.978795 0.0546462
216 1 0.637527 0.870978 0.0579037
207 1 0.516727 0.859758 0.142833
327 1 0.629812 0.955208 0.177691
450 2 0.579104 0.845696 0.246248
291 1 0.747661 0.871658 0.158532
109 1 0.984355 0.790251 0.238679
171 1 0.864656 0.759113 0.15763
200 1 0.763211 0.790048 0.0409496
274 1 0.910875 0.896846 0.176901
108 1 0.867787 0.876751 0.0448651
211 1 0.100522 0.697147 0.287198
55 1 0.138182 0.506935 0.395489
269 1 0.0445893 0.738175 0.394251
188 1 0.202031 0.604127 0.313358
390 2 0.0740881 0.620296 0.393677
449 2 0.178568 0.732547 0.368786
145 1 0.0158229 0.556808 0.332736
81 1 0.14642 0.670972 0.480689
248 1 0.243088 0.734831 0.266216
131 1 0.017787 0.612553 0.499681
395 2 0.208741 0.572402 0.48415
370 1 0.495082 0.544421 0.315646
447 2 0.409585 0.521021 0.393452
232 1 0.273087 0.673404 0.395241
139 1 0.362074 0.60705 0.318706
26 1 0.380081 0.60841 0.460934
43 1 0.376065 0.748339 0.313041
101 1 0.491236 0.682663 0.368686
135 1 0.285454 0.525521 0.405849
306 1 0.619831 0.742913 0.301754
351 1 0.625696 0.598353 0.329339
434 2 0.728594 0.698962 0.354102
8 1 0.623163 0.699337 0.440688
310 1 0.507821 0.560653 0.459547
249 1 0.88933 0.506719 0.374971
185 1 0.759426 0.606187 0.419184
38 1 0.963953 0.662103 0.255277
191 1 0.759743 0.516573 0.315603
227 1 0.829682 0.656572 0.298623
302 1 0.930382 0.649097 0.395059
136 1 0.791277 0.746087 0.438744
462 2 0.913681 0.552722 0.495321
396 2 0.238377 0.757701 0.478888
322 1 0.0833913 0.995565 0.3155
330 1 0.0869157 0.960935 0.462591
198 1 0.00446135 0.868738 0.376621
329 1 0.128272 0.844523 0.321958
192 1 0.147253 0.820501 0.446822
319 1 0.212467 0.946941 0.385635
425 2 0.298346 0.913306 0.466893
420 2 0.479535 0.937746 0.440181
366 1 0.406181 0.761812 0.449987
273 1 0.276613 0.824112 0.391638
89 1 0.389624 0.909469 0.381229
221 1 0.674813 0.885533 0.286666
258 1 0.7371 0.94719 0.390637
230 1 0.517753 0.823529 0.344953
201 1 0.51862 0.944151 0.277282
9 1 0.672499 0.821722 0.431128
362 1 0.594492 0.940149 0.407126
58 1 0.543349 0.811717 0.483537
437 2 0.966957 0.92006 0.477935
85 1 0.875415 0.881302 0.424994
202 1 0.886821 0.783691 0.337399
264 1 0.933548 0.773381 0.484452
422 2 0.921639 0.898505 0.292739
213 1 0.809379 0.912352 0.278246
410 2 0.772111 0.824192 0.349788
231 1 0.764931 0.769143 0.251114
100 1 0.114608 0.524762 0.531835
120 1 0.050361 0.692928 0.624501
243 1 0.176717 0.635764 0.620247
92 1 0.0863715 0.549308 0.679811
417 2 0.116188 0.647679 0.71684
129 1 0.224296 0.588439 0.74844
378 1 0.267855 0.723708 0.667417
52 1 0.380233 0.673664 0.733515
415 2 0.349432 0.636793 0.626421
374 1 0.441793 0.548734 0.59595
112 1 0.355597 0.538357 0.702028
429 2 0.469008 0.655927 0.65635
158 1 0.293831 0.539315 0.557945
68 1 0.299013 0.683665 0.53715
290 1 0.492265 0.685242 0.521197
23 1 0.683063 0.629748 0.682668
339 1 0.549069 0.549497 0.721733
1 1 0.594967 0.604869 0.556275
337 1 0.717273 0.74119 0.556438
259 1 0.737315 0.567233 0.549935
95 1 0.586158 0.723679 0.625229
160 1 0.96293 0.530321 0.607081
45 1 0.929256 0.642661 0.71012
78 1 0.806259 0.5488 0.675192
448 2 0.926335 0.667387 0.603388
324 1 0.812913 0.683033 0.641698
321 1 0.853174 0.643077 0.515971
281 1 0.160103 0.767055 0.736044
205 1 0.124036 0.903553 0.70067
107 1 0.189237 0.919517 0.55865
332 1 0.162815 0.772518 0.582142
266 1 0.0393809 0.851872 0.569757
388 2 0.0777575 0.800984 0.673466
196 1 0.021682 0.995733 0.618711
438 2 0.227202 0.841812 0.6665
134 1 0.242907 0.964259 0.714648
446 2 0.0555571 0.753191 0.514056
376 1 0.41024 0.753212 0.605652
93 1 0.317838 0.98762 0.549454
166 1 0.294634 0.831102 0.551718
381 1 0.357984 0.911058 0.655354
361 1 0.493684 0.855935 0.629704
60 1 0.415385 0.885354 0.514286
386 2 0.466432 0.966626 0.645345
424 2 0.693306 0.762488 0.668157
12 1 0.583112 0.813651 0.729402
3 1 0.646716 0.865653 0.59276
295 1 0.542966 0.952815 0.542384
187 1 0.574155 0.949542 0.682895
79 1 0.70147 0.893102 0.746433
65 1 0.689172 0.976304 0.52375
210 1 0.931941 0.78361 0.627422
123 1 0.795183 0.823165 0.658913
167 1 0.861714 0.945053 0.710627
72 1 0.987249 0.878204 0.698879
440 2 0.831613 0.758133 0.560909
49 1 0.890104 0.919074 0.575959
238 1 0.750349 0.989574 0.642651
279 1 0.770351 0.863642 0.517783
277 1 0.231903 0.658699 0.963192
209 1 0.0947786 0.571529 0.950731
32 1 0.133429 0.663176 0.826337
46 1 0.0109881 0.598775 0.820633
432 2 0.0350216 0.671297 0.903422
334 1 0.222997 0.551578 0.879471
25 1 0.0258463 0.747049 0.775208
476 2 0.291038 0.559869 0.987626
474 2 0.451683 0.665967 0.985809
479 2 0.323816 0.570316 0.816907
234 1 0.281811 0.695417 0.826282
241 1 0.359488 0.612883 0.912139
197 1 0.437131 0.710819 0.861042
304 1 0.487133 0.578397 0.858432
6 1 0.516097 0.579776 0.990544
408 2 0.727564 0.697156 0.985069
80 1 0.538251 0.683632 0.752268
397 2 0.733379 0.656754 0.862797
336 1 0.620913 0.598438 0.827524
140 1 0.658522 0.587336 0.958183
469 2 0.579056 0.517759 0.919968
96 1 0.566901 0.68871 0.91516
240 1 0.667421 0.719646 0.791407
42 1 0.901524 0.512268 0.771846
392 2 0.884109 0.588113 0.855913
186 1 0.761524 0.544895 0.822913
10 1 0.816662 0.668117 0.790714
24 1 0.93276 0.578828 0.982912
40 1 0.935474 0.702126 0.879599
284 1 0.796644 0.614479 0.942613
439 2 0.185556 0.879424 0.786198
87 1 0.0561411 0.879533 0.812545
76 1 0.133007 0.918963 0.937589
174 1 0.179681 0.795919 0.866989
199 1 0.0484289 0.79313 0.931024
294 1 0.155063 0.982639 0.820614
255 1 0.0123348 0.988733 0.893973
99 1 0.431403 0.79357 0.750472
254 1 0.292006 0.822278 0.775193
385 2 0.340889 0.930879 0.788578
169 1 0.267571 0.929736 0.882215
206 1 0.39057 0.871045 0.877465
399 2 0.283034 0.771584 0.919261
383 1 0.461785 0.943588 0.771934
340 1 0.371823 0.752711 0.99093
88 1 0.517313 0.808313 0.967899
157 1 0.67618 0.782648 0.915685
146 1 0.526151 0.833917 0.842819
464 2 0.578737 0.929392 0.79522
267 1 0.672535 0.918562 0.910375
275 1 0.526225 0.957528 0.913025
270 1 0.813615 0.901563 0.846238
71 1 0.816349 0.757187 0.896147
28 1 0.86098 0.988792 0.949012
460 2 0.956168 0.926712 0.80142
478 2 0.783243 0.812893 0.794628
226 1 0.889056 0.781885 0.771311
338 1 0.93396 0.860692 0.897974
471 2 0.776879 0.862245 0.958382
442 2 0.774609 0.982583 0.764324
ITEM: TIMESTEP
70000
ITEM: NUMBER OF ATOMS
480
ITEM: BOX BOUNDS pp pp pp
0.0000000000000000e+00 7.3680629972807701e+00
0.0000000000000000e+00 7.3680629972807701e+00
0.0000000000000000e+00 7.3680629972807701e+00
ITEM: ATOMS id type xs ys zs
62 1 0.209465 0.0641807 0.0881812
98 1 0.102858 0.15739 0.11915
56 1 0.21088 0.148126 0.20094
419 2 0.0118081 0.0987994 0.167433
225 1 0.783155 0.430597 0.485424
293 1 0.22222 0.253498 0.0990903
64 1 0.645323 0.348411 0.270292
326 1 0.319733 0.156006 0.074152
47 1 0.441982 0.111714 0.0825591
473 2 0.353453 0.131585 0.182137
253 1 0.918078 0.0323412 0.183492
220 1 0.45747 0.139298 0.234377
315 1 0.342862 0.236661 0.19034
118 1 0.466614 0.234102 0.129772
212 1 0.617771 0.487156 0.208323
402 2 0.0969539 0.0626487 0.0460395
349 1 0.661251 0.13632 0.113398
27 1 0.594462 0.0647473 0.213006
404 2 0.543144 0.142196 0.130856
405 2 0.91857 0.422281 0.293843
443 2 0.686063 0.0391254 0.055911
308 1 0.577268 0.234054 0.232062
389 2 0.734291 0.243187 0.0625229
251 1 0.221534 0.0188669 0.262845
398 2 0.75611 0.167146 0.189817
282 1 0.855619 0.215097 0.151678
130 1 0.811841 0.093143 0.111494
246 1 0.955291 0.145838 0.0895702
411 2 0.907857 0.138327 0.238578
204 1 0.9853 0.212858 0.210245
268 1 0.946333 0.157009 0.488414
310 1 0.501434 0.473264 0.417528
182 1 0.0610798 0.42178 0.0826502
141 1 0.104151 0.300577 0.143711
116 1 0.238399 0.343046 0.216301
414 2 0.247139 0.473069 0.186478
180 1 0.136095 0.442747 0.231536
436 2 0.154346 0.354295 0.0403728
342 1 0.773123 0.287271 0.418266
69 1 0.246011 0.406655 0.0935565
467 2 0.425486 0.351406 0.155594
66 1 0.829352 0.278266 0.0058714
176 1 0.352653 0.410077 0.21799
103 1 0.356876 0.302518 0.06872
7 1 0.508797 0.353235 0.0350691
33 1 0.469479 0.46404 0.142422
311 1 0.536447 0.352304 0.175937
223 1 0.619195 0.261552 0.0794215
173 1 0.607173 0.433437 0.0836324
472 2 0.655046 0.344209 0.15677
150 1 0.74162 0.276011 0.190774
124 1 0.722791 0.358644 0.0703239
370 1 0.503383 0.445968 0.285616
18 1 0.757842 0.435562 0.183276
373 1 0.970192 0.314413 0.103291
298 1 0.968166 0.446332 0.183604
428 2 0.827094 0.32055 0.117567
4 1 0.856837 0.43688 0.0920025
113 1 0.901471 0.319442 0.223604
214 1 0.486203 0.230661 0.466751
114 1 0.898984 0.298366 0.476472
400 2 0.123778 0.104856 0.267241
235 1 0.0571529 0.243753 0.0185497
14 1 0.109499 0.22009 0.273533
59 1 0.0563937 0.118549 0.406812
333 1 0.196263 0.114144 0.356314
394 2 0.158408 0.223804 0.391875
380 1 0.257046 0.242666 0.316516
345 1 0.177353 0.159177 0.487989
105 1 0.433417 0.0189318 0.313524
170 1 0.30306 0.0689526 0.441116
377 1 0.334681 0.118971 0.308507
215 1 0.429789 0.105579 0.438025
407 2 0.281148 0.179879 0.414989
458 2 0.484434 0.219712 0.337132
38 1 0.869234 0.477162 0.38291
249 1 0.799512 0.373305 0.304625
163 1 0.953708 0.265591 0.346406
203 1 0.570926 0.0911537 0.497251
191 1 0.723999 0.493666 0.315223
126 1 0.642491 0.224742 0.384513
369 1 0.551644 0.128394 0.349054
480 2 0.658464 0.114445 0.412865
154 1 0.684197 0.152741 0.273142
462 2 0.727684 0.271002 0.313216
138 1 0.385344 0.445064 0.0359691
401 2 0.0114265 0.160364 0.308824
165 1 0.71829 0.0133301 0.182576
50 1 0.809432 0.077601 0.264594
94 1 0.773464 0.136727 0.381389
31 1 0.831309 0.0407923 0.469996
350 1 0.0267811 0.0469739 0.286411
137 1 0.914482 0.113175 0.362082
426 2 0.857418 0.211867 0.421382
371 1 0.827112 0.222753 0.291824
453 2 0.76616 0.0226751 0.361474
372 1 0.060605 0.267191 0.444584
433 2 0.0936036 0.388314 0.437416
250 1 0.147404 0.348899 0.348947
15 1 0.236538 0.285146 0.452899
111 1 0.204781 0.42167 0.454075
224 1 0.0320691 0.349588 0.259246
151 1 0.643125 0.024363 0.331522
365 1 0.00283889 0.497513 0.312087
276 1 0.667651 0.392603 0.398368
460 2 0.655764 0.306564 0.471931
323 1 0.257507 0.434255 0.311203
300 1 0.557531 0.0306006 0.0602808
219 1 0.381962 0.233195 0.375234
135 1 0.387591 0.408213 0.365235
341 1 0.442301 0.3013 0.269063
447 2 0.325175 0.3234 0.309567
139 1 0.382187 0.336289 0.482489
53 1 0.982608 0.393976 0.411321
451 2 0.606539 0.443732 0.317772
287 1 0.540064 0.332934 0.367426
457 2 0.34866 0.438147 0.481642
464 2 0.883643 0.0293892 0.0470422
348 1 0.101515 0.0196612 0.169122
13 1 0.325765 0.0197308 0.157703
418 2 0.960854 0.48195 0.0591799
28 1 0.994215 0.00270057 0.064747
133 1 0.474714 0.0033561 0.185612
252 1 0.557543 0.170807 0.00821236
387 2 0.118418 0.217798 0.563301
196 1 0.0671745 0.0751324 0.531149
35 1 0.151079 0.122044 0.645514
222 1 0.0251165 0.115377 0.715947
159 1 0.22133 0.227099 0.72681
391 2 0.113979 0.0338266 0.744373
208 1 0.235778 0.238728 0.590733
454 2 0.976135 0.321796 0.842028
474 2 0.61324 0.365491 0.981525
271 1 0.284215 0.0962682 0.587365
475 2 0.263503 0.119172 0.690575
121 1 0.357761 0.194515 0.672898
296 1 0.434867 0.109632 0.574301
256 1 0.331362 0.0333113 0.698505
312 1 0.466863 0.105781 0.724363
178 1 0.861537 0.350455 0.833256
316 1 0.734078 0.425043 0.761401
187 1 0.756887 -0.000116308 0.711424
386 2 0.564015 0.0461807 0.68932
236 1 0.72184 0.193904 0.652143
74 1 0.568542 0.159521 0.62122
65 1 0.665581 0.050814 0.61065
175 1 0.552544 0.24758 0.731679
63 1 0.90255 0.393838 0.96436
437 2 0.982967 0.128326 0.605642
49 1 0.937234 0.0196294 0.551039
17 1 0.89482 0.188644 0.644225
238 1 0.806302 0.0769228 0.613643
357 1 0.812654 0.188246 0.536165
205 1 0.921591 0.0294889 0.70703
412 2 0.000398079 0.353169 0.516445
20 1 0.150037 0.155379 0.982884
299 1 0.0796206 0.254243 0.698857
375 1 0.134091 0.328651 0.545037
242 1 0.179516 0.355811 0.688519
415 2 0.175858 0.436831 0.601676
142 1 0.104614 0.472964 0.704498
189 1 0.0297688 0.374486 0.627198
477 2 0.349415 0.289981 0.59502
34 1 0.313446 0.333608 0.69302
355 1 0.402078 0.419947 0.607218
37 1 0.265941 0.374538 0.562248
360 1 0.251682 0.480329 0.690369
429 2 0.440896 0.352976 0.699358
344 1 0.466796 0.269503 0.619751
184 1 0.674746 0.177393 0.511722
152 1 0.649676 0.423866 0.552393
339 1 0.535756 0.397085 0.651879
179 1 0.601642 0.282165 0.566494
128 1 0.660717 0.330356 0.676373
82 1 0.740117 0.296908 0.554881
86 1 0.773244 0.427525 0.63001
278 1 0.00279403 0.244441 0.585264
470 2 0.957047 0.314083 0.695557
239 1 0.895355 0.417949 0.717869
144 1 0.876727 0.327274 0.611168
247 1 0.804311 0.279628 0.721977
286 1 0.927287 0.445564 0.534712
70 1 0.959097 0.449999 0.848983
431 2 0.123808 0.168193 0.768927
102 1 0.0199818 0.102751 0.954358
320 1 0.0617216 0.223623 0.858279
358 1 0.351035 0.203346 0.51594
134 1 0.104823 0.0765822 0.849111
132 1 0.19808 0.196504 0.856622
294 1 0.379011 0.01761 0.829266
260 1 0.46656 0.0628271 0.955299
190 1 0.223942 0.0660721 0.787608
147 1 0.732467 0.158039 0.987171
54 1 0.323244 0.102902 0.942809
117 1 0.330049 0.153255 0.801967
439 2 0.371748 0.223546 0.888308
21 1 0.280391 0.237972 0.964724
127 1 0.465601 0.16273 0.863128
172 1 0.440288 0.219324 0.987978
427 2 0.748786 0.328432 0.855044
317 1 0.616654 0.156211 0.886853
30 1 0.657603 0.10673 0.738633
445 2 0.5597 0.151166 0.782026
442 2 0.727922 0.132769 0.833805
376 1 0.0756802 0.468418 0.530427
384 1 0.872953 0.116828 0.970821
83 1 0.817838 0.12246 0.742052
22 1 0.937016 0.235784 0.918301
255 1 0.948601 0.115297 0.831146
167 1 0.805042 0.216407 0.878159
79 1 0.828302 0.05811 0.856992
48 1 0.929877 0.239372 0.76809
353 1 0.168041 0.450332 0.974548
459 2 0.143788 0.287291 0.803023
156 1 0.161108 0.296505 0.944103
356 1 0.0381221 0.370383 0.942259
122 1 0.0502156 0.366281 0.767012
280 1 0.188523 0.391138 0.839935
162 1 0.402582 0.265982 0.781347
263 1 0.427655 0.480027 0.732977
149 1 0.291107 0.300716 0.846756
237 1 0.284252 0.397317 0.957875
125 1 0.403586 0.331564 0.929121
245 1 0.325284 0.433027 0.821912
265 1 0.686204 0.24259 0.799611
301 1 0.635981 0.364794 0.852249
347 1 0.51343 0.362729 0.503452
262 1 0.633444 0.501456 0.955461
257 1 0.512798 0.413473 0.906716
217 1 0.53597 0.28349 0.90517
75 1 0.690201 0.286084 0.952706
314 1 0.5173 0.35965 0.782577
77 1 0.564839 0.488413 0.797057
261 1 0.746951 0.41936 0.931588
346 1 0.209084 0.0254624 0.92922
383 1 0.547814 0.0400826 0.828176
406 2 0.669743 0.476792 0.853816
87 1 0.68895 0.0172725 0.826972
367 1 0.771441 0.0129659 0.988938
331 1 0.187472 0.0109012 0.524297
216 1 0.62177 0.0190317 0.945203
259 1 0.530662 0.49724 0.543714
456 2 0.740062 0.0934323 0.515353
57 1 0.096314 0.500104 0.860643
2 1 0.214489 0.656681 0.149933
305 1 0.0409957 0.562685 0.110859
322 1 0.0740576 0.699143 0.183399
143 1 0.0918137 0.674541 0.0425246
476 2 0.134976 0.560863 0.00349501
104 1 0.174794 0.525862 0.119352
67 1 0.117921 0.582276 0.244064
145 1 0.116367 0.623336 0.484637
106 1 0.372598 0.653268 0.226575
354 1 0.318374 0.552457 0.118939
19 1 0.503874 0.724125 0.188418
211 1 0.342875 0.69154 0.0853364
177 1 0.462654 0.631012 0.0904739
221 1 0.518062 0.974053 0.45182
244 1 0.405583 0.540602 0.478157
423 2 0.286827 0.508211 0.0025593
73 1 0.597302 0.578901 0.102597
272 1 0.623645 0.653658 0.218203
183 1 0.682603 0.691886 0.0928956
362 1 0.689207 1.00322 0.465259
227 1 0.730964 0.568206 0.171864
201 1 0.748868 0.919308 0.306909
85 1 0.793014 0.915218 0.43866
202 1 0.80856 0.646259 0.0409352
328 1 0.976158 0.600107 0.237239
363 1 0.927145 0.709953 0.138255
435 2 0.859335 0.636875 0.25904
233 1 0.886254 0.56814 0.121151
291 1 0.789011 0.707476 0.19243
136 1 0.790302 0.767889 0.332561
468 2 0.173001 0.807736 0.203618
119 1 0.160946 0.795127 0.0875565
200 1 0.0608642 0.875456 0.138303
368 1 0.219903 0.906619 0.164277
382 1 0.140087 0.939545 0.051347
466 2 0.0344725 0.762311 0.0902636
297 1 0.873118 0.976165 0.338043
313 1 0.99305 0.995184 0.417239
396 2 0.253794 0.731323 0.0477637
422 2 0.266119 0.974346 0.0393726
194 1 0.464519 0.77908 0.0647575
329 1 0.281779 0.767384 0.191858
285 1 0.474771 0.869259 0.176157
319 1 0.338211 0.859389 0.101232
420 2 0.389353 0.775895 0.167789
292 1 0.43617 0.954622 0.0605668
168 1 0.355779 0.913439 0.234968
207 1 0.600861 0.806835 0.129061
450 2 0.546806 0.915383 0.101563
327 1 0.717196 0.835594 0.209923
5 1 0.67864 0.917558 0.0797961
471 2 0.657782 0.794534 0.00201503
283 1 0.612103 0.925513 0.214561
258 1 0.917419 0.837047 0.373158
452 2 0.825069 0.964015 0.228846
109 1 0.801515 0.801799 0.0899041
441 2 0.968869 0.808104 0.207783
325 1 0.932775 0.865299 0.0991532
338 1 0.855965 0.842488 0.21473
108 1 0.821995 0.944272 0.110283
188 1 0.167914 0.736812 0.288221
192 1 0.0449269 0.651153 0.350939
101 1 0.210076 0.63253 0.36625
248 1 0.263422 0.571051 0.250117
352 1 0.855474 0.522806 0.254476
364 1 -0.00504441 0.545329 0.438877
390 2 0.1193 0.724417 0.402997
95 1 0.709853 0.801214 0.469327
155 1 0.390601 0.522741 0.29785
424 2 0.468384 0.57123 0.379168
461 2 0.282666 0.702837 0.297125
41 1 0.287726 0.525945 0.411517
309 1 0.37288 0.636987 0.377566
26 1 0.384368 0.774223 0.41589
29 1 0.958041 0.634801 0.017439
351 1 0.496892 0.568081 0.217346
11 1 0.133787 0.510805 0.388562
230 1 0.500184 0.670758 0.322647
131 1 0.667666 0.529653 0.436999
8 1 0.549598 0.613298 0.458134
185 1 0.598066 0.56778 0.328774
231 1 0.641123 0.702481 0.367066
157 1 0.91937 0.731968 0.281196
269 1 0.755322 0.654445 0.443726
171 1 0.747658 0.629725 0.297796
213 1 0.898672 0.621808 0.365646
403 2 0.960773 0.725843 0.396051
409 2 0.777074 0.539724 0.408044
81 1 0.861309 0.737846 0.476019
266 1 0.122565 0.910749 0.262167
107 1 0.0440697 0.799759 0.469779
198 1 0.0459117 0.799149 0.30426
51 1 0.236015 0.7562 0.428874
449 2 0.0399753 0.906237 0.357314
84 1 0.140323 0.859055 0.393732
148 1 0.262171 0.938771 0.41796
425 2 0.320317 0.860118 0.465751
332 1 0.266756 0.835222 0.322749
43 1 0.41234 0.79466 0.285543
89 1 0.39274 0.904919 0.384392
274 1 0.97003 0.920559 0.24923
366 1 0.51965 0.778232 0.403684
9 1 0.636004 0.894969 0.389478
410 2 0.688265 0.737105 0.264733
306 1 0.58005 0.793881 0.272754
90 1 0.514432 0.902788 0.314454
408 2 0.417672 0.691615 0.000778355
44 1 0.738519 0.509013 0.0447637
318 1 0.506925 0.516689 0.0102671
289 1 0.861009 0.576958 0.509671
379 1 0.572514 0.704792 0.0195714
478 2 0.597327 0.719138 0.465605
395 2 0.17414 0.529106 0.497824
330 1 0.120519 0.997035 0.387983
421 2 0.666388 0.613838 0.0113372
210 1 0.924135 0.885361 0.497767
181 1 0.918159 0.768777 0.00653122
153 1 0.234911 0.614634 0.00860526
36 1 0.243293 0.857016 -0.00338969
68 1 0.159195 0.570151 0.616987
52 1 0.167158 0.710197 0.720825
55 1 0.213082 0.728906 0.589141
264 1 0.06323 0.686623 0.614756
392 2 0.0620501 0.585114 0.686061
100 1 0.991034 0.546273 0.60703
129 1 0.288704 0.614604 0.645342
197 1 0.456741 0.712545 0.676609
336 1 0.424613 0.571859 0.622928
23 1 0.558861 0.752203 0.564826
479 2 0.365363 0.688759 0.609614
416 2 0.380551 0.850234 0.982547
374 1 0.274705 0.515282 0.556621
397 2 0.526442 0.525326 0.68608
1 1 0.563624 0.636229 0.64856
307 1 0.391755 0.979494 0.502522
91 1 0.0708258 0.924301 0.52453
337 1 0.66383 0.691369 0.555954
434 2 0.627795 0.562096 0.574606
324 1 0.706142 0.64706 0.678539
340 1 0.584418 0.745397 0.74167
45 1 0.738166 0.562728 0.576232
92 1 0.946356 0.661481 0.668443
218 1 0.860006 0.542259 0.654132
321 1 0.8141 0.676774 0.597979
199 1 0.935457 0.992956 0.927059
32 1 0.968641 0.54468 0.747276
303 1 0.434912 0.518896 0.874957
120 1 0.0572151 0.976746 0.647755
243 1 0.0734388 0.829929 0.62346
385 2 0.107759 0.892813 0.72282
232 1 0.207008 0.833505 0.668741
93 1 0.207649 0.862202 0.523655
463 2 0.154166 0.919031 0.599058
446 2 0.120917 0.734627 0.523774
455 2 0.773959 0.959244 0.878109
241 1 0.317007 0.752047 0.715861
166 1 0.349421 0.791613 0.56461
361 1 0.395328 0.864795 0.679835
273 1 0.462748 0.851928 0.524987
275 1 0.474193 0.954475 0.737644
12 1 0.537561 0.852412 0.660054
58 1 0.601506 0.881128 0.521781
240 1 0.67805 0.801403 0.651362
295 1 0.620827 0.951177 0.703942
3 1 0.716366 0.932231 0.58716
432 2 0.0585576 0.745754 0.708195
140 1 0.848671 0.883146 0.980403
40 1 0.834947 0.786564 0.698225
388 2 0.975953 0.893247 0.593201
444 2 0.753453 0.882191 0.692878
226 1 0.944966 0.785877 0.607124
279 1 0.797057 0.813599 0.57577
123 1 0.856209 0.919764 0.664148
46 1 0.979121 0.85356 0.725737
440 2 0.836317 0.955627 0.550372