ITEM: TIMESTEP
0
ITEM: NUMBER OF ATOMS
480
ITEM: BOX BOUNDS pp pp pp
0.0000000000000000e+00 7.3680629972807701e+00
0.0000000000000000e+00 7.3680629972807701e+00
0.0000000000000000e+00 7.3680629972807701e+00
ITEM: ATOMS id type xs ys zs
311 1 0.133799 0.153791 0.15423
40 1 0.0356152 0.162455 0.0539485
460 2 0.11504 0.0303602 0.0513878
419 2 0.162945 0.22812 0.0722916
150 1 0.0117796 0.0416451 0.115782
205 1 0.226642 0.0766813 0.0833393
177 1 0.229562 0.0863559 0.247674
387 2 0.202823 0.199695 0.232627
88 1 0.287978 0.18338 0.156276
214 1 0.374415 0.0734852 0.162919
328 1 0.405649 0.189322 0.0753802
430 2 0.487302 0.105042 0.136796
188 1 0.351607 0.0664627 0.0233718
216 1 0.411551 0.231286 0.212038
102 1 0.263963 0.184654 0.00824105
187 1 0.506275 0.107645 0.0155933
76 1 0.532741 0.209655 0.133714
244 1 0.734087 0.0462345 0.11539
37 1 0.606009 0.0952944 0.173232
308 1 0.632638 0.175141 0.039212
142 1 0.709774 0.196289 0.152898
473 2 0.711018 0.0134037 0.233712
342 1 0.605267 0.0124245 0.0499538
374 1 0.791968 0.0941858 0.241674
92 1 0.982153 0.169228 0.199755
251 1 0.859874 0.120257 0.104827
477 2 0.752996 0.144411 0.0541158
252 1 0.836266 0.240924 0.192182
444 2 0.933446 0.235663 0.0993518
245 1 0.830465 0.238062 0.0409332
467 2 0.91382 0.0305432 0.0388751
287 1 0.212577 0.321255 0.0199147
179 1 0.0705248 0.284024 0.116685
8 1 0.0641444 0.397523 0.220578
424 2 0.0099679 0.381795 0.106772
295 1 0.20931 0.304893 0.1584
339 1 0.0900914 0.483472 0.0993275
356 1 0.217546 0.452816 0.128759
211 1 0.339766 0.317347 0.127485
296 1 0.462461 0.37021 0.089819
464 2 0.295948 0.39389 0.20378
191 1 0.337481 0.430908 0.0255571
16 1 0.363945 0.481605 0.15564
63 1 0.504503 0.466822 0.207022
423 2 0.722148 0.262924 0.0478627
394 2 0.678495 0.303098 0.204682
395 2 0.558654 0.44483 0.108095
47 1 0.612745 0.317341 0.0858274
6 1 0.631296 0.41565 0.203974
361 1 0.680581 0.438896 0.0551567
5 1 0.529073 0.314169 0.234711
291 1 0.511878 0.262517 0.000478446
178 1 0.758875 0.349948 0.136659
29 1 0.757105 0.481236 0.200241
332 1 0.969929 0.304409 0.223784
127 1 0.895859 0.36164 0.0975961
349 1 0.945873 0.465137 0.166582
45 1 0.968876 0.448214 0.0158642
98 1 0.834441 0.498973 0.0714039
369 1 0.78406 0.360288 0.00144285
400 2 0.167269 0.0213852 0.334977
199 1 0.0898958 0.116895 0.290356
134 1 0.0727737 0.0216953 0.394943
240 1 0.0803188 0.183687 0.429301
121 1 0.220893 0.175386 0.366462
57 1 0.181288 0.0902239 0.473855
48 1 0.493816 0.111866 0.256341
54 1 0.307749 0.129194 0.48421
281 1 0.293032 0.0296392 0.374369
428 2 0.404439 0.0398298 0.284496
233 1 0.419502 0.0847719 0.387519
85 1 0.344787 0.145961 0.297433
67 1 0.466392 0.22272 0.340319
195 1 0.596674 0.206195 0.265477
140 1 0.660322 0.0919662 0.458257
144 1 0.560567 0.138264 0.37955
345 1 0.573908 0.00376701 0.292196
222 1 0.670329 0.0970493 0.302609
385 2 0.670793 0.194705 0.394341
192 1 0.729938 0.238078 0.289631
388 2 0.520724 0.229399 0.459825
331 1 0.539271 0.0166185 0.445277
184 1 0.97375 0.183274 0.332419
286 1 0.772749 0.167913 0.421104
70 1 0.950007 0.233856 0.457742
43 1 0.951737 0.0535375 0.267351
208 1 0.914253 0.0782803 0.411529
434 2 0.849524 0.149778 0.324282
270 1 0.768188 0.0293897 0.37948
337 1 0.0654279 0.315516 0.491126
275 1 0.102924 0.267553 0.253061
228 1 0.179154 0.388424 0.481409
335 1 0.0519325 0.444687 0.45431
217 1 0.204322 0.421445 0.280241
406 2 0.10985 0.400884 0.344229
303 1 0.170391 0.308722 0.375319
367 1 0.0152118 0.317873 0.361105
463 2 0.282783 0.322359 0.470358
448 2 0.395976 0.440507 0.465584
49 1 0.342638 0.252725 0.405494
161 1 0.289619 0.279343 0.265925
151 1 0.440792 0.34899 0.400369
103 1 0.390132 0.374625 0.25105
351 1 0.307497 0.397086 0.382319
89 1 0.43852 0.47421 0.341451
282 1 0.674351 0.439601 0.443094
355 1 0.727371 0.310347 0.438757
14 1 0.593489 0.283014 0.378644
235 1 0.509603 0.445592 0.473809
78 1 0.565624 0.428451 0.335254
115 1 0.709066 0.372921 0.316294
432 2 0.586143 0.368738 0.456161
322 1 0.843226 0.377671 0.257661
36 1 0.95206 0.426977 0.310926
469 2 0.857488 0.48674 0.267583
168 1 0.858147 0.266498 0.348921
273 1 0.80802 0.453497 0.374505
20 1 0.90659 0.369326 0.434547
316 1 0.0106691 0.0971427 0.5273
380 1 0.137016 0.060282 0.656728
61 1 0.0888383 0.201173 0.585267
471 2 0.0345208 0.105662 0.641767
153 1 0.224508 0.154028 0.619618
209 1 0.103478 0.161771 0.73968
449 2 0.16895 0.240633 0.684531
475 2 0.0952238 0.0153529 0.525136
239 1 0.20702 0.238837 0.505281
135 1 0.263196 0.016469 0.583801
307 1 0.300376 0.0495379 0.735053
32 1 0.362261 0.1481 0.629819
478 2 0.31044 0.219833 0.560687
219 1 0.491084 0.215673 0.649227
17 1 0.473894 0.0687918 0.684027
180 1 0.421521 0.0501507 0.532511
99 1 0.418026 0.217279 0.518909
262 1 0.627276 0.226369 0.508747
246 1 0.527414 0.134722 0.541328
118 1 0.612488 0.0734096 0.693593
304 1 0.63342 0.199463 0.645071
407 2 0.646182 0.0621171 0.575857
28 1 0.7434 0.146889 0.575324
441 2 0.733222 0.1414 0.706474
327 1 0.77045 0.00416503 0.526425
163 1 0.959267 0.214495 0.621711
165 1 0.904991 0.0354673 0.665234
33 1 0.826589 0.189482 0.67012
267 1 0.775213 0.043593 0.686485
284 1 0.963279 0.148625 0.746016
300 1 0.875413 0.110161 0.540641
455 2 0.144055 0.31296 0.576082
66 1 0.204254 0.477997 0.639435
297 1 0.117192 0.344443 0.691755
266 1 0.0894127 0.431313 0.58935
405 2 0.00286055 0.472322 0.663843
402 2 0.0289505 0.25764 0.732827
410 2 0.17951 0.426425 0.740975
360 1 0.0880099 0.497477 0.748572
162 1 0.253011 0.327784 0.602576
285 1 0.290029 0.447192 0.528315
60 1 0.357913 0.287953 0.691813
479 2 0.447361 0.322915 0.643547
143 1 0.354483 0.418785 0.656415
215 1 0.384301 0.351395 0.53834
94 1 0.496008 0.4305 0.654822
75 1 0.610767 0.477746 0.711328
370 1 0.517465 0.315857 0.540572
10 1 0.598136 0.334845 0.694738
320 1 0.724281 0.288152 0.590904
202 1 0.631864 0.398546 0.564908
279 1 0.716967 0.265873 0.737281
265 1 0.727657 0.427858 0.651068
3 1 0.831578 0.25579 0.516248
139 1 0.995664 0.341325 0.643728
364 1 0.848993 0.352289 0.626146
401 2 0.91307 0.400759 0.711488
190 1 0.934884 0.448322 0.558028
433 2 0.94565 0.319227 0.543845
372 1 0.787105 0.426157 0.529623
109 1 0.898992 0.287685 0.744882
381 1 0.85433 0.499843 0.661148
169 1 0.0349594 0.032699 0.978066
154 1 0.0381146 0.0337529 0.753478
160 1 0.248114 0.199753 0.754573
314 1 0.169716 0.0467708 0.805054
250 1 0.0435539 0.144957 0.888825
164 1 0.160318 0.0958144 0.952013
391 2 0.166221 0.168252 0.849143
435 2 0.0845573 0.0252858 0.870686
368 1 0.1089 0.238503 0.961611
470 2 0.242927 0.020819 0.947031
457 2 0.470341 0.23663 0.845859
227 1 0.404958 0.0336537 0.897878
175 1 0.413027 0.166981 0.773292
152 1 0.270824 0.111167 0.873796
323 1 0.415809 0.16721 0.925759
357 1 0.543925 0.200638 0.769347
156 1 0.631744 0.00255032 0.815451
4 1 0.570592 0.168969 0.902867
376 1 0.679569 0.146051 0.811064
249 1 0.660939 0.0737019 0.933457
126 1 0.510571 0.0676041 0.824804
451 2 0.534865 0.0208265 0.924331
350 1 0.750211 0.183251 0.936938
247 1 0.921051 0.158142 0.959391
207 1 0.776017 0.0493342 0.822962
46 1 0.839389 0.179804 0.825393
418 2 0.860873 0.0739488 0.757902
289 1 0.918757 0.0613819 0.858629
39 1 0.805683 0.0653055 0.982048
318 1 0.000345375 0.37796 0.793413
74 1 0.0342117 0.483748 0.885973
330 1 0.246791 0.338983 0.757558
417 2 0.0296902 0.344606 0.901549
379 1 0.103765 0.270679 0.817762
248 1 0.138405 0.394596 0.859061
24 1 0.227189 0.260352 0.888009
170 1 0.182889 0.484268 0.988117
172 1 0.089421 0.382248 0.982222
50 1 0.471642 0.335771 0.771883
359 1 0.266661 0.477078 0.779365
9 1 0.409917 0.47693 0.782951
414 2 0.349665 0.383371 0.785351
189 1 0.354762 0.273446 0.84642
341 1 0.274207 0.390671 0.894912
120 1 0.422417 0.39959 0.907755
288 1 0.367776 0.294661 0.984716
422 2 0.649208 0.261432 0.845966
110 1 0.547901 0.321546 0.876897
476 2 0.64184 0.405785 0.927987
200 1 0.658978 0.396807 0.818324
96 1 0.659781 0.289243 0.955278
171 1 0.535202 0.47875 0.845211
238 1 0.542691 0.413312 0.99221
242 1 0.809636 0.397578 0.763028
83 1 0.966847 0.254629 0.854415
454 2 0.869759 0.250271 0.924235
315 1 0.767309 0.450587 0.895995
141 1 0.898669 0.379712 0.905618
253 1 0.905878 0.48466 0.799969
269 1 0.775307 0.312153 0.866556
383 1 0.959412 0.293593 0.990866
352 1 0.147848 0.68419 0.215877
210 1 0.197853 0.596272 0.0961295
157 1 0.0778594 0.691854 0.0902942
234 1 0.0525485 0.582302 0.189788
130 1 0.183358 0.556194 0.243515
466 2 0.27421 0.688136 0.0487825
62 1 0.259213 0.739983 0.157038
237 1 0.388753 0.693236 0.0850729
264 1 0.322572 0.614556 0.198294
44 1 0.471736 0.610909 0.167521
41 1 0.322556 0.55827 0.0471075
274 1 0.39532 0.73423 0.215664
446 2 0.418182 0.532722 0.244528
18 1 0.475818 0.522883 0.0678739
223 1 0.618968 0.553272 0.175725
104 1 0.726356 0.597471 0.1153
136 1 0.727654 0.720811 0.0436147
283 1 0.610064 0.692096 0.12344
392 2 0.50135 0.721833 0.121557
101 1 0.508839 0.649316 0.0157344
77 1 0.527777 0.720863 0.241686
333 1 0.605726 0.559294 0.0413062
111 1 0.973867 0.579672 0.068545
442 2 0.840997 0.721261 0.143237
309 1 0.833779 0.638631 0.0216988
280 1 0.951991 0.699712 0.137534
259 1 0.866016 0.593684 0.166946
474 2 0.942881 0.682272 0.00667725
480 2 0.240736 0.989838 0.159052
221 1 0.16011 0.807301 0.0651886
260 1 0.0899467 0.92525 0.0866703
371 1 0.0865752 0.821972 0.196215
203 1 0.219884 0.940594 0.0344551
340 1 0.221486 0.881578 0.176924
261 1 0.130683 0.991438 0.216443
292 1 0.290754 0.814663 0.0554179
415 2 0.333557 0.827222 0.156669
137 1 0.430405 0.836191 0.051183
116 1 0.347202 0.938079 0.112598
377 1 0.414711 0.862797 0.234197
243 1 0.330229 0.970852 0.236771
257 1 0.463499 0.980618 0.0356814
336 1 0.480664 0.991792 0.188712
445 2 0.706334 0.997801 0.0122537
206 1 0.734758 0.752782 0.195805
212 1 0.56233 0.799735 0.0143714
353 1 0.519937 0.829816 0.151369
11 1 0.6659 0.897238 0.0572449
396 2 0.629279 0.803806 0.115357
193 1 0.613615 0.949821 0.172829
256 1 0.631001 0.817183 0.246591
236 1 0.746119 0.906218 0.17297
461 2 0.534175 0.931962 0.0967331
95 1 0.99092 0.815011 0.0776902
426 2 0.771198 0.82666 0.0918985
131 1 0.860661 0.775887 0.0305306
225 1 0.974602 0.916738 0.190512
196 1 0.803191 0.924582 0.0343873
386 2 0.895809 0.866925 0.0975576
123 1 0.855555 0.824904 0.188363
397 2 0.974175 0.801367 0.19498
324 1 0.865298 0.986771 0.147998
181 1 0.935484 0.92366 0.00318469
97 1 0.183595 0.518385 0.385417
107 1 0.0622375 0.50746 0.33178
204 1 0.111585 0.638755 0.346939
440 2 0.0609654 0.57098 0.428476
69 1 0.225733 0.649475 0.449
106 1 0.0120829 0.708719 0.259914
412 2 0.150333 0.726406 0.416723
91 1 0.0879206 0.664562 0.490963
182 1 0.262924 0.668855 0.303051
113 1 0.464028 0.601671 0.468952
319 1 0.404179 0.62977 0.31515
174 1 0.329796 0.566829 0.424038
93 1 0.358953 0.723665 0.411806
362 1 0.309948 0.518606 0.296554
81 1 0.658362 0.67014 0.270704
64 1 0.542708 0.690722 0.397222
128 1 0.69503 0.632888 0.421042
198 1 0.54015 0.578518 0.298975
393 2 0.697483 0.734911 0.49543
55 1 0.588285 0.54822 0.433202
301 1 0.68514 0.521578 0.322056
347 1 0.940071 0.515771 0.431639
389 2 0.766349 0.699836 0.330857
176 1 0.870209 0.705009 0.265032
338 1 0.792492 0.593388 0.276668
271 1 0.934157 0.567291 0.281693
25 1 0.843162 0.616107 0.411819
100 1 0.977304 0.652385 0.388109
421 2 0.895853 0.727102 0.380915
420 2 0.752851 0.533496 0.450401
146 1 0.0526903 0.91159 0.487626
71 1 0.0496348 0.775692 0.39429
224 1 0.214246 0.912263 0.321205
159 1 0.169793 0.776933 0.317843
404 2 0.132087 0.874425 0.391451
329 1 0.0549213 0.908315 0.310959
294 1 0.201542 0.94617 0.454314
229 1 0.23059 0.803273 0.437369
403 2 0.341887 0.802761 0.487137
12 1 0.456464 0.824339 0.36197
68 1 0.302635 0.805325 0.29297
277 1 0.342398 0.887326 0.401298
86 1 0.45186 0.956395 0.336294
453 2 0.317487 0.989675 0.477275
220 1 0.460914 0.885496 0.491034
452 2 0.533385 0.890184 0.258709
458 2 0.65087 0.995608 0.376399
52 1 0.669669 0.766247 0.372069
149 1 0.64777 0.942387 0.491964
158 1 0.704519 0.919561 0.304988
298 1 0.584215 0.878229 0.366845
409 2 0.698521 0.857378 0.425254
35 1 0.950628 0.949534 0.395742
53 1 0.848311 0.954422 0.290272
321 1 0.926732 0.82371 0.448693
132 1 0.801177 0.817926 0.319889
112 1 0.943912 0.831631 0.301373
84 1 0.80088 0.750825 0.446918
272 1 0.818489 0.908887 0.433948
299 1 0.161039 0.678445 0.611776
306 1 0.205114 0.596904 0.719699
411 2 0.107788 0.572434 0.64821
399 2 0.172747 0.731555 0.721223
7 1 0.00913611 0.563798 0.572296
129 1 0.0204441 0.699797 0.618589
201 1 0.139057 0.538594 0.522062
138 1 0.270604 0.588425 0.575092
293 1 0.409065 0.649688 0.600939
72 1 0.406565 0.516499 0.570074
310 1 0.350904 0.565419 0.695102
31 1 0.290603 0.699981 0.699462
258 1 0.432296 0.70853 0.719031
186 1 0.497124 0.566504 0.713511
183 1 0.270249 0.729322 0.5449
465 2 0.345008 0.654902 0.501357
232 1 0.665396 0.605604 0.65466
302 1 0.547374 0.530524 0.579722
82 1 0.560124 0.691762 0.671339
26 1 0.686196 0.53541 0.545326
268 1 0.59978 0.666209 0.524331
148 1 0.982928 0.57633 0.722732
90 1 0.763871 0.656306 0.54056
358 1 0.761903 0.70051 0.712317
438 2 0.77345 0.573333 0.619782
348 1 0.883567 0.636527 0.639258
173 1 0.855326 0.560124 0.528721
73 1 0.961705 0.720196 0.742298
114 1 0.913706 0.69608 0.520313
429 2 0.197519 0.972895 0.703615
436 2 0.00940259 0.752033 0.507681
38 1 0.11181 0.799841 0.550429
133 1 0.081596 0.79336 0.691069
27 1 0.153417 0.933966 0.596451
425 2 0.215438 0.855244 0.537431
125 1 0.209505 0.818755 0.652971
231 1 0.0250916 0.979455 0.614481
51 1 0.45869 0.751935 0.515137
326 1 0.428392 0.934111 0.632191
42 1 0.366813 0.792377 0.616093
375 1 0.303094 0.9213 0.686945
439 2 0.349943 0.816264 0.732328
230 1 0.327617 0.900346 0.549103
30 1 0.667377 0.752223 0.613174
366 1 0.734182 0.845767 0.537269
19 1 0.620375 0.815824 0.731249
79 1 0.512884 0.823651 0.637056
117 1 0.68201 0.957223 0.63431
416 2 0.605721 0.87981 0.595609
276 1 0.562417 0.945428 0.712214
384 1 0.549082 0.98938 0.582758
459 2 0.739698 0.835118 0.673564
1 1 0.586183 0.818386 0.505088
58 1 0.912641 0.967307 0.53112
427 2 0.853097 0.861932 0.535919
15 1 0.825861 0.775845 0.614169
105 1 0.960767 0.827166 0.590963
80 1 0.825825 0.914496 0.636038
23 1 0.853557 0.820299 0.744076
290 1 0.988702 0.896228 0.72246
343 1 0.0789938 0.584477 0.982532
450 2 0.228217 0.598591 0.962087
167 1 0.0934798 0.659604 0.773086
363 1 0.165702 0.553414 0.872324
2 1 0.0455245 0.723406 0.957323
344 1 0.225867 0.686777 0.83459
313 1 0.183355 0.707013 0.977747
456 2 0.120826 0.668983 0.881049
87 1 0.302242 0.528839 0.906727
378 1 0.380735 0.623946 0.82133
122 1 0.4299 0.543758 0.937951
226 1 0.335508 0.671306 0.945306
317 1 0.731415 0.556966 0.972594
468 2 0.551393 0.53329 0.948025
21 1 0.650054 0.54327 0.861016
22 1 0.640563 0.679779 0.800872
443 2 0.530756 0.726447 0.787279
431 2 0.588424 0.570547 0.775353
373 1 0.521359 0.62352 0.869683
185 1 0.635042 0.677429 0.955384
255 1 0.766722 0.530801 0.773734
194 1 0.884866 0.539743 0.922707
166 1 0.98687 0.611901 0.860886
398 2 0.821978 0.730296 0.812534
312 1 0.759647 0.657308 0.879779
218 1 0.86962 0.6243 0.794245
119 1 0.891255 0.719564 0.906835
34 1 0.126107 0.908749 0.759384
59 1 0.125228 0.786733 0.845658
13 1 0.0666034 0.861365 0.963212
241 1 0.151744 0.943607 0.90658
213 1 0.246752 0.84268 0.779797
354 1 0.426488 0.960976 0.780529
254 1 0.460088 0.750138 0.933577
108 1 0.251984 0.825495 0.925254
472 2 0.358358 0.799261 0.946542
325 1 0.284684 0.958921 0.844498
365 1 0.472427 0.833125 0.768886
147 1 0.338847 0.926901 0.971074
334 1 0.35321 0.761724 0.833766
263 1 0.473043 0.885904 0.915344
413 2 0.3768 0.878831 0.859114
346 1 0.733327 0.941992 0.904317
390 2 0.537193 0.940094 0.832163
305 1 0.574004 0.79363 0.868196
56 1 0.737226 0.919467 0.750897
155 1 0.68993 0.814895 0.941048
145 1 0.601279 0.931504 0.935401
278 1 0.731292 0.795232 0.810421
408 2 0.661223 0.878415 0.842167
382 1 0.848179 0.85406 0.900943
65 1 0.868487 0.952044 0.794747
124 1 0.996399 0.940716 0.861636
462 2 0.959294 0.80478 0.964142
447 2 0.789474 0.759295 0.937512
197 1 0.989712 0.80141 0.85104
437 2 0.850877 0.972989 0.922122
ITEM: TIMESTEP
1000000
ITEM: NUMBER OF ATOMS
480
ITEM: BOX BOUNDS pp pp pp
0.0000000000000000e+00 7.3680629972807701e+00
0.0000000000000000e+00 7.3680629972807701e+00
0.0000000000000000e+00 7.3680629972807701e+00
ITEM: ATOMS id type xs ys zs
169 1 0.137958 0.0545332 0.121414
328 1 0.11981 0.181281 0.0529996
121 1 0.220963 0.144915 0.20617
303 1 0.111969 0.227184 0.195331
143 1 0.480163 0.358788 0.0228345
76 1 0.258872 0.170008 0.0743992
295 1 0.354514 0.184941 0.185255
464 2 0.410384 0.0681111 0.163145
222 1 0.409573 0.149777 0.0540756
214 1 0.301514 0.0323222 0.141196
271 1 0.850125 0.484742 0.405483
195 1 0.552713 0.186194 0.0441067
192 1 0.502544 0.138094 0.176003
142 1 0.61976 0.0941138 0.122437
115 1 0.724423 0.200865 0.188523
245 1 0.711361 0.190705 0.0467962
396 2 0.722594 0.0901627 0.209956
193 1 0.513425 0.0526424 0.0333176
385 2 0.605775 0.212273 0.151215
301 1 0.929419 0.386769 0.320343
341 1 0.599945 0.249103 0.264051
78 1 0.783665 0.409192 0.291994
184 1 0.00092506 0.125337 0.108886
430 2 0.807702 0.139713 0.0318489
124 1 0.872588 0.184776 0.123369
236 1 0.793234 0.0638163 0.122505
244 1 0.900079 0.0505901 0.0412741
462 2 0.92589 0.0597791 0.171045
211 1 0.195224 0.28643 0.00191397
248 1 0.0983775 0.324107 0.0974687
16 1 0.165419 0.398366 0.198175
179 1 0.242087 0.291343 0.134675
356 1 0.11461 0.461597 0.0240319
424 2 0.0703566 0.431921 0.12471
237 1 0.232584 0.41522 0.0744688
8 1 0.984541 0.250789 0.0233311
417 2 0.193481 0.487501 0.272906
189 1 0.429849 0.444495 0.227368
475 2 0.286054 0.389107 0.175171
216 1 0.361122 0.298201 0.0728579
287 1 0.376815 0.447639 0.0826336
48 1 0.375699 0.312165 0.20936
126 1 0.497301 0.267486 0.135792
465 2 0.459789 0.385459 0.129337
233 1 0.557457 0.148292 0.448711
361 1 0.610783 0.327389 0.0853109
81 1 0.702508 0.354091 0.198345
103 1 0.557869 0.387862 0.205169
223 1 0.658023 0.456721 0.115761
315 1 0.746472 0.355989 0.0632545
463 2 0.667686 0.450435 0.236843
442 2 0.725118 0.466067 0.019128
120 1 0.519304 0.489907 0.110528
473 2 0.787085 0.262188 0.107492
251 1 0.98313 0.251116 0.171696
40 1 0.959503 0.396634 0.182069
252 1 0.887496 0.334742 0.0653841
322 1 0.815104 0.44423 0.1477
374 1 0.839582 0.313712 0.208227
336 1 0.522208 0.000698085 0.170288
331 1 0.50904 0.0205597 0.451656
320 1 0.67797 0.302214 0.439951
158 1 0.766495 0.0141584 0.301389
92 1 0.0186808 0.011956 0.476349
57 1 0.141021 0.0693586 0.431744
20 1 0.114737 0.0930912 0.285743
43 1 0.0264057 0.148742 0.390511
97 1 0.135661 0.234859 0.353516
54 1 0.234884 0.127526 0.342175
441 2 0.00970156 0.0394511 0.327696
406 2 0.0287883 0.239601 0.301151
49 1 0.42643 0.235545 0.462994
428 2 0.326218 0.194922 0.312882
85 1 0.346158 0.0674583 0.271259
161 1 0.450503 0.209725 0.285568
135 1 0.372277 0.111889 0.401548
215 1 0.280106 0.232867 0.41452
345 1 0.495143 0.0522903 0.306507
134 1 0.267462 0.0936043 0.485691
355 1 0.606976 0.109108 0.260995
144 1 0.628989 0.0309395 0.375731
369 1 0.990333 0.405323 0.0202415
67 1 0.673678 0.168591 0.36651
262 1 0.745336 0.272953 0.307076
392 2 0.779402 0.128296 0.345963
204 1 0.0505922 0.490162 0.230738
240 1 0.986846 0.130772 0.243787
58 1 0.831004 0.141284 0.250015
53 1 0.766292 0.0445848 0.447153
208 1 0.908277 0.236307 0.329134
329 1 0.892821 0.0866293 0.384717
270 1 0.80331 0.198807 0.428443
337 1 0.156638 0.189213 0.485955
311 1 0.0532235 0.348293 0.267029
25 1 0.0291825 0.457629 0.364041
29 1 0.0184605 0.310298 0.404302
107 1 0.182126 0.322709 0.465815
36 1 0.171977 0.385946 0.343403
273 1 0.245454 0.437434 0.477159
61 1 0.945544 0.40374 0.462089
335 1 0.249659 0.279693 0.278695
296 1 0.300075 0.417343 0.293221
351 1 0.370259 0.461725 0.400334
440 2 0.289242 0.353698 0.413837
151 1 0.39328 0.32217 0.35408
478 2 0.496303 0.328246 0.290318
268 1 0.505057 0.437299 0.352358
286 1 0.823649 0.335657 0.416261
5 1 0.644932 0.383398 0.325829
300 1 0.92238 0.234911 0.477956
173 1 0.608528 0.409799 0.474282
14 1 0.536647 0.283996 0.389818
261 1 0.204889 0.00367938 0.236013
139 1 0.0885867 0.42181 0.488002
339 1 0.86154 0.474998 0.0155617
70 1 0.746198 0.426794 0.487142
162 1 0.101911 0.181799 0.639366
380 1 0.17001 0.0429725 0.572152
432 2 0.217025 0.148142 0.602029
407 2 0.0898789 0.0448873 0.655902
168 1 0.0173305 0.141069 0.53479
13 1 0.171739 0.0831466 0.722992
395 2 0.964128 0.341087 0.557383
209 1 0.00899271 0.11456 0.725428
164 1 0.246384 0.197175 0.704061
294 1 0.325052 0.210275 0.57264
180 1 0.311378 0.0682765 0.628498
370 1 0.435413 0.11789 0.538891
472 2 0.46804 0.0904159 0.656349
99 1 0.386214 0.168497 0.710554
32 1 0.393865 0.0238661 0.730733
242 1 0.65156 0.450357 0.602786
327 1 0.532611 0.176986 0.621586
140 1 0.651374 0.0551826 0.529974
357 1 0.686496 0.19002 0.647566
246 1 0.720484 0.0599166 0.666443
422 2 0.603945 0.128505 0.703639
459 2 0.530217 0.057666 0.559289
28 1 0.572293 0.025159 0.666217
476 2 0.71081 0.403577 0.854971
453 2 0.758731 0.103216 0.545574
324 1 0.810588 0.204908 0.57438
423 2 0.787045 0.16046 0.684554
165 1 0.945884 0.24369 0.615345
207 1 0.87428 0.0914123 0.666417
418 2 0.938234 0.0228588 0.743088
80 1 0.877999 0.0982477 0.529709
314 1 0.981112 0.014348 0.617649
217 1 0.192385 0.272722 0.596823
153 1 0.1711 0.409839 0.606176
7 1 0.0861514 0.323256 0.68057
450 2 0.0996664 0.463558 0.675
388 2 0.198718 0.295235 0.706791
347 1 0.0618367 0.275859 0.532805
323 1 0.029109 0.429152 0.758863
293 1 0.00671843 0.463982 0.599608
285 1 0.183006 0.406506 0.752315
72 1 0.437452 0.280286 0.606318
201 1 0.327463 0.306555 0.692558
448 2 0.404271 0.418754 0.604359
291 1 0.455546 0.383424 0.713773
88 1 0.32019 0.346099 0.554578
113 1 0.296621 0.445962 0.663829
333 1 0.472321 0.478834 0.957313
362 1 0.598639 0.301579 0.675627
10 1 0.572486 0.282498 0.53201
279 1 0.715384 0.323182 0.602081
26 1 0.51942 0.486539 0.576764
457 2 0.696223 0.268805 0.72609
438 2 0.52385 0.366356 0.62167
75 1 0.582528 0.477126 0.723206
379 1 0.936001 0.458254 0.887667
364 1 0.709088 0.386116 0.730153
37 1 0.605681 0.0148949 0.933685
66 1 0.782753 0.468402 0.652841
109 1 0.904485 0.382873 0.695077
33 1 0.80771 0.271582 0.700368
381 1 0.845101 0.352697 0.568426
154 1 0.986728 0.282255 0.761634
247 1 0.724917 0.0583708 0.998275
289 1 0.870097 0.330502 0.82404
297 1 0.109639 0.21371 0.770796
203 1 0.151775 0.0596986 0.982005
250 1 0.101588 0.0860786 0.84598
307 1 0.225153 0.119985 0.862038
400 2 0.192879 0.172282 0.966807
150 1 0.018437 0.118184 0.972309
449 2 0.0184262 0.179714 0.828039
288 1 0.0844318 0.227193 0.919355
455 2 0.301972 0.0984158 0.766522
188 1 0.308886 0.0119288 0.848417
187 1 0.424904 0.0135631 0.920775
175 1 0.390251 0.130319 0.854468
461 2 0.43511 0.119155 0.953894
205 1 0.307344 0.210969 0.956544
325 1 0.432917 0.260334 0.941041
304 1 0.500224 0.113286 0.766565
152 1 0.531122 0.152317 0.893834
4 1 0.613734 0.21989 0.803376
308 1 0.688389 0.167384 0.903673
437 2 0.739722 0.0648165 0.881219
354 1 0.748742 0.143261 0.788068
249 1 0.625972 0.0668149 0.801747
444 2 0.715601 0.281048 0.968077
46 1 0.828105 0.248042 0.97786
163 1 0.886253 0.186632 0.771148
290 1 0.962547 0.0750496 0.849333
477 2 0.815904 0.219946 0.862801
350 1 0.818036 0.0249335 0.783055
306 1 0.937265 0.228915 0.894993
39 1 0.842732 0.114396 0.919002
141 1 0.81673 0.449459 0.798107
383 1 0.18175 0.392361 0.910414
330 1 0.0139202 0.352978 0.894674
435 2 0.112728 0.330907 0.826365
127 1 0.0877509 0.475688 0.871517
60 1 0.208484 0.263248 0.849036
387 2 0.097229 0.337835 0.973924
200 1 0.796554 0.382 0.934116
402 2 0.912446 0.331205 0.941376
171 1 0.485223 0.258334 0.771853
102 1 0.317748 0.386639 0.96336
50 1 0.354622 0.266971 0.823168
186 1 0.31843 0.407841 0.805829
228 1 0.441097 0.376928 0.866774
401 2 0.5459 0.381402 0.922621
156 1 0.605738 0.372084 0.819089
178 1 0.596067 0.275055 0.935238
96 1 0.64654 0.403018 0.96487
284 1 0.733139 0.290291 0.840334
414 2 0.225673 0.481796 0.960051
3 1 0.684333 0.186903 0.50939
47 1 0.290756 0.070781 0.981399
467 2 0.930051 0.009628 0.940463
194 1 0.878329 0.494584 0.552698
445 2 0.622785 0.110599 0.996616
64 1 0.460012 0.386478 0.504898
419 2 0.913381 0.158408 0.995296
130 1 0.154615 0.523741 0.138469
454 2 0.105616 0.66241 0.178299
170 1 0.0199212 0.662011 0.0511941
349 1 0.167329 0.673452 0.0841446
397 2 0.083731 0.567263 0.0495724
466 2 0.245971 0.618871 0.173629
45 1 0.992082 0.521771 0.101809
191 1 0.296263 0.510874 0.182969
44 1 0.460642 0.72699 0.132225
172 1 0.426992 0.587266 0.138849
310 1 0.310519 0.688648 0.107178
202 1 0.345553 0.640387 0.236531
210 1 0.267583 0.556702 0.0427768
394 2 0.246456 0.718798 0.009068
137 1 0.588468 0.790036 0.0134886
317 1 0.496773 0.637152 0.0265069
41 1 0.607899 0.605404 0.137791
447 2 0.707915 0.669844 0.169157
319 1 0.506896 0.660343 0.254151
101 1 0.608397 0.737639 0.158608
63 1 0.73108 0.555348 0.199435
119 1 0.763453 0.569358 0.0592124
181 1 0.0325318 0.997655 0.200601
283 1 0.670149 0.679889 0.0425391
280 1 0.963002 0.934005 0.374911
382 1 0.898142 0.627181 0.00482761
343 1 0.994621 0.636445 0.189002
157 1 0.840118 0.662296 0.239984
410 2 0.915962 0.687078 0.117746
111 1 0.877059 0.575104 0.14441
196 1 0.805623 0.7121 0.0900966
55 1 0.64954 0.507221 0.382318
71 1 0.208897 0.741456 0.201435
234 1 0.0558289 0.767445 0.157573
221 1 0.131705 0.909688 0.146776
116 1 0.194453 0.811111 0.0693685
368 1 0.233541 0.950208 0.0536143
371 1 0.00269687 0.871492 0.24562
243 1 0.267802 0.895666 0.176108
112 1 0.827316 0.767349 0.336464
460 2 0.116643 0.827401 0.251721
257 1 0.397141 0.965383 0.0675335
62 1 0.333946 0.832865 0.0718744
377 1 0.405756 0.93746 0.214814
342 1 0.499429 0.866081 0.119895
452 2 0.407296 0.561157 0.0242588
18 1 0.479883 0.811344 0.256822
114 1 0.928544 0.818381 0.433604
212 1 0.607784 0.944949 0.0777496
136 1 0.700044 0.830845 0.104147
353 1 0.601673 0.880536 0.20679
225 1 0.698853 0.980651 0.167841
256 1 0.717094 0.774686 0.242533
338 1 0.00429602 0.543616 0.469088
299 1 0.88331 0.957769 0.487675
386 2 0.0196739 0.861992 0.0919056
206 1 0.793524 0.895687 0.208905
259 1 0.905533 0.773064 0.18872
456 2 0.822663 0.826136 0.104752
95 1 0.927653 0.917025 0.132999
83 1 0.798389 0.938578 0.0640022
166 1 0.937183 0.77948 0.0581308
316 1 0.247897 0.989505 0.375826
274 1 0.16556 0.598548 0.260509
100 1 0.234109 0.588878 0.482432
367 1 0.145399 0.523802 0.399902
421 2 0.169336 0.653094 0.371055
69 1 0.108859 0.72203 0.292981
404 2 1.00002 0.696635 0.414106
344 1 0.0872826 0.660759 0.475664
106 1 0.0291113 0.605821 0.337069
229 1 0.183002 0.759716 0.42098
174 1 0.2709 0.567977 0.331486
68 1 0.266315 0.707017 0.329984
89 1 0.425626 0.563876 0.32083
42 1 0.365311 0.614474 0.431395
182 1 0.420278 0.71716 0.345541
470 2 0.0284604 0.892505 0.466933
82 1 0.493955 0.537962 0.45116
235 1 0.646816 0.649015 0.279071
198 1 0.526342 0.666805 0.409402
393 2 0.55718 0.567026 0.348288
128 1 0.664981 0.648143 0.420678
409 2 0.883953 0.862951 0.288286
321 1 0.961876 0.734007 0.306217
332 1 0.911146 0.506304 0.261853
260 1 0.0303509 0.985182 0.0625827
420 2 0.743642 0.691269 0.341347
372 1 0.765241 0.566717 0.333117
434 2 0.942398 0.534366 0.360497
176 1 0.894129 0.633627 0.376807
84 1 0.801944 0.692925 0.454847
458 2 0.616046 0.980989 0.275051
474 2 0.89228 0.597708 0.486257
469 2 0.118711 0.915422 0.0368615
275 1 0.100194 0.951721 0.313339
352 1 0.0532945 0.827618 0.368023
146 1 0.144623 0.907674 0.454597
177 1 0.220317 0.851881 0.306832
159 1 0.355777 0.78853 0.206319
86 1 0.397559 0.973755 0.36295
415 2 0.307503 0.933898 0.277875
281 1 0.36419 0.843704 0.339105
224 1 0.285823 0.877538 0.44497
220 1 0.444698 0.898273 0.467805
403 2 0.490123 0.813402 0.380367
267 1 0.698167 0.919407 0.476851
272 1 0.816725 0.898104 0.369089
12 1 0.591937 0.771661 0.31591
298 1 0.533374 0.913768 0.339836
132 1 0.673822 0.900137 0.332472
1 1 0.702863 0.795383 0.412379
104 1 0.581038 0.816783 0.466212
389 2 0.585351 0.927295 0.438327
326 1 0.443516 0.754743 0.491957
238 1 0.619068 0.542911 -0.00130539
6 1 0.570019 0.520692 0.246605
429 2 0.236576 0.983962 0.490577
123 1 0.905645 0.984697 0.258361
426 2 0.730623 0.775207 0.00710982
277 1 0.310938 0.727117 0.49204
190 1 0.122859 0.537956 0.562035
399 2 0.125607 0.672573 0.721544
93 1 0.140809 0.668399 0.60827
255 1 0.0405768 0.594509 0.68521
138 1 0.190132 0.5452 0.696148
167 1 0.0156166 0.735062 0.627466
405 2 0.0362503 0.619576 0.56741
363 1 0.246668 0.675352 0.726651
416 2 0.239291 0.508533 0.583951
31 1 0.29442 0.610932 0.612832
378 1 0.429967 0.631317 0.570776
213 1 0.366708 0.739964 0.638279
94 1 0.428027 0.631533 0.727268
425 2 0.244041 0.728098 0.624724
110 1 0.421007 0.518206 0.67024
258 1 0.324872 0.560463 0.77167
105 1 0.0480512 0.989656 0.766791
431 2 0.490863 0.683976 0.653474
90 1 0.683082 0.605346 0.6335
51 1 0.573948 0.696928 0.543334
232 1 0.550281 0.591829 0.668177
334 1 0.607276 0.740038 0.672347
436 2 0.68996 0.67782 0.544845
269 1 0.920748 0.523449 0.728117
348 1 0.784039 0.702586 0.606829
282 1 0.916316 0.620234 0.629705
427 2 0.80875 0.575657 0.616088
148 1 0.818769 0.627289 0.723174
21 1 0.604494 0.504515 0.859843
443 2 0.778976 0.752347 0.73093
125 1 0.14442 0.781291 0.700713
230 1 0.139088 0.927632 0.687192
38 1 0.187204 0.805984 0.562637
35 1 0.0787922 0.91146 0.573704
241 1 0.239948 0.922593 0.587921
34 1 0.00473757 0.857131 0.691953
366 1 0.805945 0.831329 0.503914
375 1 0.273189 0.832261 0.685977
479 2 0.347176 0.946053 0.636191
117 1 0.353834 0.851773 0.562341
384 1 0.414079 0.875214 0.703972
219 1 0.446171 0.983968 0.601188
239 1 0.269167 0.97804 0.724609
79 1 0.501606 0.799403 0.606773
30 1 0.685206 0.793131 0.568574
118 1 0.685638 0.926905 0.633005
17 1 0.557931 0.881399 0.704181
149 1 0.559561 0.930022 0.562944
122 1 0.471916 0.504524 0.808183
27 1 0.887353 0.750713 0.693157
451 2 0.764966 0.929578 0.726847
276 1 0.80874 0.979559 0.598347
231 1 0.923257 0.8515 0.575522
346 1 0.794509 0.837617 0.65017
376 1 0.886748 0.935713 0.701308
9 1 0.217168 0.518203 0.843958
318 1 0.159709 0.57922 0.962791
266 1 0.127206 0.634779 0.836639
133 1 0.0204609 0.726466 0.763846
108 1 0.139455 0.715935 0.957019