ITEM: TIMESTEP
0
ITEM: NUMBER OF ATOMS
480
ITEM: BOX BOUNDS pp pp pp
0.0000000000000000e+00 7.3680629972807701e+00
0.0000000000000000e+00 7.3680629972807701e+00
0.0000000000000000e+00 7.3680629972807701e+00
ITEM: ATOMS id type xs ys zs
273 1 0.147807 0.127026 0.0808498
431 2 0.0498199 0.13272 0.141549
317 1 0.0874677 0.0451007 0.183739
174 1 0.0102611 0.127963 0.00959645
101 1 0.00266989 0.2399 0.130679
271 1 0.242248 0.101768 0.181396
138 1 0.102299 0.237977 0.0174233
103 1 0.0979225 0.00712893 0.0513673
13 1 0.368526 0.0548916 0.115108
392 2 0.422338 0.158533 0.0492142
53 1 0.301447 0.172392 0.0692466
356 1 0.359737 0.185695 0.209038
187 1 0.475856 0.125863 0.153693
165 1 0.620356 0.088354 0.175968
186 1 0.717 0.14288 0.0546192
239 1 0.582677 0.111398 0.0111329
437 2 0.533075 0.0201322 0.156065
100 1 0.549084 0.237207 0.195302
319 1 0.635977 0.245766 0.091393
268 1 0.534345 0.241781 0.00178103
171 1 0.94672 0.0454543 0.100838
388 2 0.763622 0.181771 0.162957
4 1 0.868507 0.164269 0.0865927
355 1 0.815812 0.0807274 0.214644
150 1 0.959361 0.123509 0.204446
197 1 0.80561 0.0308178 0.0559672
111 1 0.228262 0.292006 0.0541735
262 1 0.151178 0.252848 0.157894
84 1 0.0927874 0.365316 0.0878549
8 1 0.153926 0.409651 0.201884
436 2 0.0447195 0.474678 0.176118
106 1 0.0212844 0.350527 0.233231
310 1 0.012154 0.46868 0.0203378
98 1 0.260685 0.431326 0.105137
304 1 0.42172 0.266518 0.103351
415 2 0.340569 0.340421 0.0898652
404 2 0.387068 0.306324 0.211471
157 1 0.276223 0.295247 0.188527
139 1 0.409894 0.407882 0.169723
76 1 0.424432 0.372078 0.00682628
82 1 0.535699 0.346688 0.0916687
373 1 0.681499 0.276064 0.232106
326 1 0.654713 0.388218 0.146768
240 1 0.652297 0.355092 0.0128307
297 1 0.73371 0.477628 0.245539
97 1 0.534604 0.382964 0.240692
468 2 0.570129 0.468296 0.0906065
413 2 0.997422 0.337814 0.034842
177 1 0.874031 0.262134 0.208177
71 1 0.779489 0.412113 0.0644978
140 1 0.929414 0.452456 0.173087
289 1 0.764463 0.274234 0.102998
68 1 0.892036 0.336424 0.0883363
412 2 0.761972 0.359595 0.213098
470 2 0.885095 0.460757 0.052054
477 2 0.803253 0.49114 0.150147
31 1 0.059631 0.20591 0.258184
380 1 0.15919 0.11712 0.285505
442 2 0.137317 0.0156227 0.325251
72 1 0.155761 0.0526338 0.484827
249 1 0.120064 0.188334 0.408956
147 1 0.0274964 0.0686807 0.339425
126 1 0.0176353 0.0303503 0.47682
459 2 0.470475 0.160069 0.264399
329 1 0.251994 0.151937 0.379011
372 1 0.339451 0.0655086 0.269711
399 2 0.264517 0.147133 0.492081
456 2 0.334116 0.0822616 0.388229
221 1 0.419033 0.146952 0.36836
457 2 0.252811 0.196548 0.259518
354 1 0.297125 0.0351409 0.490602
35 1 0.698078 0.00597171 0.478436
151 1 0.514786 0.0654786 0.297375
410 2 0.501781 0.0849253 0.411982
454 2 0.709938 0.104 0.252078
128 1 0.540954 0.20482 0.422207
130 1 0.616807 0.1678 0.299428
231 1 0.612189 0.0817191 0.408697
333 1 0.68986 0.210061 0.414339
109 1 0.754063 0.0861461 0.35988
204 1 0.77997 0.202689 0.284688
95 1 0.893406 0.0380332 0.409093
170 1 0.969612 0.16253 0.432612
189 1 0.89585 0.134522 0.313981
286 1 0.82537 0.14844 0.471403
201 1 0.0713442 0.432451 0.447436
371 1 0.173118 0.26738 0.325181
194 1 0.166004 0.321664 0.469686
376 1 0.086003 0.489575 0.298436
43 1 0.194075 0.436888 0.372073
400 2 0.092926 0.379314 0.342422
27 1 0.00556383 0.272295 0.353861
480 2 0.24484 0.336594 0.376273
2 1 0.450772 0.486896 0.443454
300 1 0.255489 0.451642 0.493659
260 1 0.292408 0.257543 0.475978
64 1 0.432129 0.433553 0.308806
1 1 0.279985 0.412038 0.262597
248 1 0.335437 0.401844 0.398801
73 1 0.326901 0.258099 0.318999
320 1 0.430516 0.308402 0.4414
207 1 0.462543 0.27155 0.295678
473 2 0.529515 0.357372 0.426516
353 1 0.564174 0.450164 0.354711
208 1 0.664258 0.349052 0.442609
41 1 0.590202 0.305663 0.340538
93 1 0.603265 0.468892 0.48898
102 1 0.702632 0.466577 0.384582
420 2 0.654442 0.38569 0.281313
344 1 0.752618 0.334213 0.331036
37 1 0.822671 0.392577 0.439051
211 1 0.863272 0.386369 0.270962
424 2 0.773683 0.269947 0.444946
142 1 0.865493 0.265502 0.372912
51 1 0.958087 0.431519 0.363296
91 1 0.953785 0.352121 0.475822
340 1 0.185128 0.0968808 0.722609
62 1 0.055268 0.168964 0.634484
463 2 0.144982 0.104895 0.605238
293 1 0.0658199 0.0203091 0.620692
357 1 0.168745 0.202702 0.539127
15 1 0.171244 0.223028 0.672201
455 2 0.0698796 0.136105 0.513903
11 1 0.423853 0.140524 0.640817
252 1 0.287518 0.138684 0.604104
474 2 0.374928 0.183083 0.525166
172 1 0.348935 0.076551 0.739053
381 1 0.361519 0.00444421 0.608165
169 1 0.482827 0.23464 0.553426
471 2 0.450763 0.244586 0.674047
104 1 0.297101 0.198452 0.738369
358 1 0.423224 0.0810655 0.501751
318 1 0.500171 0.0104417 0.603505
34 1 0.559225 0.113374 0.526038
133 1 0.616725 0.0650209 0.657817
434 2 0.574268 0.192187 0.604857
160 1 0.703484 0.134662 0.537799
18 1 0.672364 0.203981 0.651313
401 2 0.616269 0.0123136 0.554076
379 1 0.539084 0.16928 0.711595
405 2 0.966897 0.00798904 0.699303
298 1 0.752806 0.0857244 0.672222
44 1 0.821393 0.0247267 0.568475
446 2 0.803294 0.151581 0.583807
88 1 0.893332 0.0931391 0.671788
238 1 0.938283 0.126277 0.55519
50 1 0.84193 0.229017 0.668937
448 2 0.756446 0.189726 0.73585
391 2 0.837655 0.00592046 0.720382
115 1 0.167259 0.46416 0.61099
259 1 0.0990506 0.323394 0.615294
193 1 0.180231 0.375995 0.724867
219 1 0.237988 0.32565 0.604782
119 1 0.0472979 0.430476 0.741277
180 1 0.0404103 0.25481 0.520065
429 2 0.29978 0.324086 0.722053
63 1 0.363891 0.277653 0.601082
291 1 0.452263 0.381753 0.66895
143 1 0.305226 0.422835 0.662276
156 1 0.371387 0.402722 0.533285
275 1 0.612354 0.262373 0.521938
190 1 0.507755 0.385346 0.531898
16 1 0.564065 0.303809 0.647264
343 1 0.584515 0.451394 0.640285
428 2 0.621437 0.364358 0.564664
40 1 0.695546 0.33955 0.662661
264 1 0.725317 0.426937 0.555631
94 1 0.978323 0.276687 0.651143
261 1 0.751112 0.265403 0.561814
226 1 0.975016 0.412398 0.606659
45 1 0.836413 0.377654 0.591163
243 1 0.760585 0.454091 0.742281
270 1 0.899619 0.351483 0.720781
331 1 0.895192 0.259039 0.532902
224 1 0.907401 0.492482 0.728124
408 2 0.78994 0.336812 0.736723
113 1 0.922399 0.479676 0.506081
345 1 0.0516228 0.138506 0.774656
234 1 0.0538881 0.0764065 0.897727
406 2 0.141895 0.0793453 0.824033
54 1 0.171675 0.193818 0.818682
363 1 0.191435 0.038674 0.935596
433 2 0.118458 0.12802 0.976547
299 1 0.0491485 0.224855 0.891476
218 1 0.218824 0.177406 0.948014
127 1 0.0909618 0.0080306 0.759891
65 1 0.324093 0.0744951 0.966765
352 1 0.451168 0.101737 0.956947
136 1 0.268335 0.0992039 0.837626
90 1 0.418314 0.150642 0.822923
452 2 0.341302 0.17524 0.89357
217 1 0.393612 0.00466331 0.85134
184 1 0.423099 0.239773 0.93846
216 1 0.487358 0.0460396 0.751603
164 1 0.665762 0.137094 0.779099
409 2 0.582188 0.0552992 0.800286
209 1 0.546401 0.177428 0.862732
61 1 0.680568 0.221743 0.938519
214 1 0.683372 0.0806757 0.913313
229 1 0.739862 0.0075756 0.794451
153 1 0.565821 0.0175146 0.905007
244 1 0.933263 0.149952 0.900503
316 1 0.93328 0.207664 0.766649
256 1 0.81274 0.162021 0.960077
202 1 0.802677 0.135654 0.82053
246 1 0.823431 0.0302675 0.918048
251 1 0.935258 0.0503358 0.809972
469 2 0.896983 0.087741 0.99249
141 1 0.0896785 0.2789 0.767322
213 1 0.0566947 0.37134 0.94181
222 1 0.17267 0.315923 0.905293
294 1 0.241095 0.428936 0.841646
418 2 0.124645 0.410441 0.841782
125 1 0.169617 0.434271 0.990277
314 1 0.458062 0.486728 0.75332
393 2 0.316862 0.260426 0.982385
341 1 0.381223 0.475093 0.916298
152 1 0.484717 0.402549 0.862269
435 2 0.382609 0.340428 0.887688
36 1 0.287135 0.365613 0.957432
280 1 0.290615 0.288207 0.83965
57 1 0.355784 0.403499 0.784258
30 1 0.42382 0.282529 0.794545
396 2 0.275547 0.489227 0.959865
149 1 0.628683 0.418077 0.777545
430 2 0.53955 0.361297 0.980397
460 2 0.540091 0.333884 0.770302
257 1 0.603431 0.449783 0.919868
250 1 0.693381 0.283636 0.789447
335 1 0.732331 0.384052 0.903486
223 1 0.58758 0.309567 0.880073
465 2 0.700726 0.466492 0.985345
263 1 0.916031 0.386985 0.963279
266 1 0.979295 0.325075 0.833873
383 1 0.818173 0.485976 0.944665
245 1 0.844743 0.386783 0.835104
112 1 0.968472 0.469422 0.852662
14 1 0.797587 0.297225 0.97747
173 1 0.83839 0.258284 0.857023
144 1 0.947038 0.253139 0.986999
32 1 0.218061 0.540776 0.184849
195 1 0.231565 0.562181 0.0449468
450 2 0.117739 0.656848 0.115583
6 1 0.0647761 0.615481 0.0142329
303 1 0.00801829 0.692673 0.153855
25 1 0.207927 0.713921 0.170487
49 1 0.000291702 0.74363 0.024403
67 1 0.11836 0.617451 0.234609
236 1 0.122878 0.511332 0.0975075
366 1 0.314805 0.633537 0.117605
148 1 0.499554 0.722178 0.123438
5 1 0.351881 0.531386 0.236693
105 1 0.418692 0.648264 0.208004
17 1 0.44189 0.631454 0.0438401
99 1 0.256023 0.704056 0.00924172
449 2 0.278802 0.646314 0.232327
22 1 0.479448 0.526615 0.156546
253 1 0.371162 0.500366 0.0606465
417 2 0.53391 0.629053 0.202153
274 1 0.732364 0.60412 0.210592
308 1 0.565366 0.603626 0.0821699
285 1 0.694333 0.655225 0.0700855
292 1 0.631326 0.712142 0.177486
359 1 0.607018 0.532268 0.228691
146 1 0.687167 0.511119 0.0989508
384 1 0.503909 0.503314 0.00147741
200 1 0.810319 0.556411 0.0512869
265 1 0.874737 0.687934 0.0724865
306 1 0.857826 0.579817 0.183019
258 1 0.962675 0.562442 0.0966429
228 1 0.769918 0.738161 0.163244
121 1 0.226694 0.987629 0.0927969
29 1 0.132995 0.767783 0.0753901
328 1 0.124345 0.906093 0.142474
277 1 0.107122 0.785347 0.23928
397 2 0.0304718 0.824363 0.154644
368 1 0.20931 0.972348 0.240733
330 1 0.0311271 0.889737 0.0235619
290 1 0.498836 0.994806 0.0494877
389 2 0.257168 0.810349 0.0605533
395 2 0.303953 0.972464 0.181865
78 1 0.251599 0.862685 0.166506
215 1 0.467326 0.861569 0.0889105
241 1 0.372562 0.766567 0.0810208
56 1 0.346883 0.920105 0.0782451
83 1 0.438445 0.964031 0.179314
439 2 0.360434 0.856658 0.172586
322 1 0.322879 0.750033 0.219206
3 1 0.464541 0.800831 0.241128
69 1 0.632285 0.815911 0.0829243
402 2 0.568127 0.800191 0.187517
114 1 0.577986 0.91829 0.168788
179 1 0.685562 0.845098 0.211561
137 1 0.680578 0.946424 0.0155986
233 1 0.719736 0.984344 0.153167
212 1 0.889282 0.913133 0.0350441
466 2 0.932279 0.751127 0.233231
12 1 0.987777 0.928315 0.153518
321 1 0.90886 0.81088 0.125277
124 1 0.772372 0.85709 0.0918741
108 1 0.838768 0.947358 0.176411
89 1 0.151642 0.560875 0.469201
423 2 0.116117 0.589829 0.344734
364 1 0.109003 0.683228 0.42934
311 1 0.200944 0.710424 0.31851
81 1 0.230443 0.573805 0.320877
188 1 0.00326518 0.690737 0.310869
74 1 0.323257 0.558266 0.434223
478 2 0.258912 0.653768 0.394728
390 2 0.44416 0.599623 0.433634
80 1 0.362759 0.649581 0.331588
122 1 0.484825 0.561555 0.326562
337 1 0.474239 0.69337 0.369202
230 1 0.371216 0.689099 0.47756
464 2 0.353015 0.501592 0.347951
398 2 0.638585 0.540146 0.336146
361 1 0.572891 0.744447 0.485245
220 1 0.602411 0.655806 0.307224
394 2 0.678412 0.553132 0.456593
116 1 0.748983 0.657888 0.484218
342 1 0.575221 0.588494 0.423826
419 2 0.669566 0.687669 0.407115
279 1 0.718546 0.732247 0.299086
203 1 0.733058 0.603292 0.359995
351 1 0.838809 0.52105 0.3203
235 1 0.992147 0.560633 0.407297
479 2 0.982699 0.701287 0.433305
255 1 0.794547 0.530341 0.480527
327 1 0.955884 0.561654 0.274019
315 1 0.840708 0.681586 0.283455
323 1 0.874223 0.645094 0.428598
441 2 0.795603 0.724237 0.386092
205 1 0.0709681 0.807718 0.375083
382 1 0.126147 0.920375 0.412198
369 1 0.0703756 0.941045 0.276571
324 1 0.220096 0.846361 0.312357
210 1 0.229871 0.91833 0.496706
38 1 0.260917 0.775506 0.429236
66 1 0.259028 0.989246 0.364384
87 1 0.373907 0.79424 0.362889
445 2 0.333904 0.90085 0.402129
301 1 0.335789 0.900999 0.279033
307 1 0.491832 0.846923 0.419836
295 1 0.498587 0.922975 0.307828
75 1 0.41235 0.992833 0.389827
39 1 0.539339 0.989478 0.464265
296 1 0.634836 0.997967 0.278301
438 2 0.730835 0.855649 0.321178
47 1 0.583288 0.799627 0.325651
85 1 0.640936 0.905594 0.383717
129 1 0.71238 0.800803 0.42983
9 1 0.987025 0.788577 0.497098
166 1 0.983393 0.923174 0.398129
131 1 0.834232 0.818754 0.252377
421 2 0.806906 0.98233 0.450936
346 1 0.826444 0.876615 0.382793
168 1 0.825462 0.762122 0.495657
155 1 0.904898 0.772116 0.375328
367 1 0.93469 0.997436 0.269813
123 1 0.758517 0.950649 0.284293
349 1 0.986653 0.835638 0.279625
59 1 0.149227 0.601388 0.630143
288 1 0.242151 0.663973 0.510635
432 2 0.0914751 0.698372 0.682887
118 1 0.0417437 0.661627 0.550299
181 1 0.186182 0.743489 0.628999
86 1 0.00766085 0.5783 0.682432
185 1 0.182209 0.515147 0.743983
198 1 0.232571 0.652639 0.731008
19 1 0.0510063 0.526361 0.552811
192 1 0.386606 0.669969 0.627239
33 1 0.297125 0.556064 0.573402
232 1 0.495414 0.612792 0.537102
386 2 0.27494 0.670684 0.623074
276 1 0.329496 0.55331 0.702596
334 1 0.4182 0.518122 0.619088
360 1 0.455103 0.634984 0.739705
110 1 0.716343 0.597052 0.734653
336 1 0.557501 0.59003 0.651999
350 1 0.683698 0.544913 0.616879
444 2 0.642613 0.683863 0.660731
462 2 0.641142 0.518415 0.720366
283 1 0.533301 0.717307 0.632043
362 1 0.634037 0.631849 0.53569
135 1 0.720997 0.742366 0.738227
451 2 0.523269 0.507039 0.568194
339 1 0.821726 0.519719 0.624479
24 1 0.773503 0.659102 0.622295
48 1 0.866483 0.637586 0.715419
476 2 0.974034 0.675251 0.64237
196 1 0.904435 0.609733 0.554696
162 1 0.977995 0.736178 0.737771
225 1 0.204659 0.99354 0.639495
79 1 0.0450794 0.783788 0.627525
176 1 0.0628598 0.91482 0.535824
206 1 0.127188 0.881125 0.691912
414 2 0.185143 0.855033 0.601449
332 1 0.148311 0.7918 0.505385
447 2 0.404885 0.839351 0.624721
254 1 0.285859 0.901145 0.65934
20 1 0.469776 0.798138 0.743352
378 1 0.3201 0.785552 0.568671
163 1 0.407955 0.924029 0.714138
443 2 0.48372 0.901239 0.541262
242 1 0.385619 0.904819 0.501556
365 1 0.330334 0.762474 0.712828
247 1 0.451381 0.781904 0.542352
55 1 0.691245 0.756693 0.570138
96 1 0.518349 0.888706 0.644702
159 1 0.642422 0.837127 0.668755
120 1 0.601249 0.955901 0.734124
58 1 0.603051 0.878498 0.529648
325 1 0.70672 0.960228 0.624034
117 1 0.898377 0.885168 0.503734
134 1 0.942526 0.975388 0.598624
385 2 0.760448 0.828703 0.620423
107 1 0.897007 0.753153 0.612298
21 1 0.982601 0.888381 0.703944
347 1 0.767554 0.896936 0.506229
467 2 0.97647 0.859069 0.5854
269 1 0.832055 0.907331 0.657183
284 1 0.853474 0.791887 0.733212
425 2 0.0612607 0.54037 0.788613
199 1 0.0017022 0.727053 0.88831
287 1 0.197769 0.580617 0.917174
145 1 0.128828 0.643884 0.820644
407 2 0.0432078 0.615621 0.898184
191 1 0.145723 0.743582 0.93314
305 1 0.0908493 0.506029 0.904306
427 2 0.370477 0.713556 0.964889
309 1 0.33553 0.609486 0.960542
422 2 0.267576 0.563492 0.808521
7 1 0.373392 0.572697 0.833248
46 1 0.272336 0.703998 0.871715
472 2 0.486611 0.522283 0.882369
374 1 0.408627 0.712229 0.848186
272 1 0.597244 0.670773 0.756683
10 1 0.703132 0.516976 0.856758
183 1 0.696595 0.656325 0.858425
370 1 0.572834 0.554055 0.813259
23 1 0.627409 0.580619 0.954929
161 1 0.501781 0.626146 0.917874
278 1 0.603503 0.72277 0.978282
375 1 0.937204 0.605682 0.946432
237 1 0.799633 0.642264 0.945902
411 2 0.894621 0.722405 0.954438
227 1 0.876139 0.702567 0.840329
403 2 0.780852 0.667625 0.782354
178 1 0.968099 0.601294 0.810104
92 1 0.829286 0.556367 0.829262
475 2 0.0737081 0.833866 0.919329
158 1 0.0108594 0.9275 0.844507
267 1 0.217957 0.801581 0.76474
458 2 0.233272 0.817225 0.887427
182 1 0.0901018 0.805767 0.807257
461 2 0.100375 0.955698 0.943274
28 1 0.159131 0.91437 0.856967
348 1 0.168715 0.87772 0.996856
26 1 0.252048 0.974031 0.786075
42 1 0.472494 0.770338 0.978042
70 1 0.320253 0.816101 0.96075
77 1 0.422854 0.924729 0.948082
338 1 0.28317 0.937302 0.923744
453 2 0.434135 0.819359 0.880413
52 1 0.341076 0.849785 0.814527
440 2 0.673004 0.821708 0.95488
426 2 0.579199 0.837787 0.76599
60 1 0.562512 0.877772 0.967026
416 2 0.651186 0.76703 0.826425
312 1 0.503327 0.91005 0.837369
313 1 0.649578 0.910844 0.870783
302 1 0.73996 0.886824 0.766974
377 1 0.537861 0.762502 0.864274
387 2 0.961226 0.831112 0.796204
132 1 0.964963 0.995846 0.959138
154 1 0.919789 0.842196 0.909235
282 1 0.872673 0.920636 0.820694
281 1 0.759321 0.777526 0.864625
167 1 0.785052 0.89953 0.932377
175 1 0.783007 0.772504 0.993045
ITEM: TIMESTEP
50000
ITEM: NUMBER OF ATOMS
480
ITEM: BOX BOUNDS pp pp pp
0.0000000000000000e+00 7.3680629972807701e+00
0.0000000000000000e+00 7.3680629972807701e+00
0.0000000000000000e+00 7.3680629972807701e+00
ITEM: ATOMS id type xs ys zs
317 1 0.171426 0.12119 0.203274
273 1 0.153794 0.0715193 0.0675947
433 2 0.214163 0.206941 0.114579
12 1 0.0550104 0.0557159 0.215815
150 1 0.0173374 0.0776546 0.0728889
103 1 0.0876227 0.183945 0.124073
262 1 0.21566 0.252541 0.221997
372 1 0.406635 0.19576 0.125218
368 1 0.286842 0.102975 0.122545
389 2 0.407935 0.0683682 0.108003
430 2 0.332447 0.177578 0.0430874
83 1 0.459784 0.0861892 0.205839
205 1 0.901217 0.0174665 0.204215
121 1 0.299885 0.29317 0.111092
459 2 0.510933 0.200136 0.194832
51 1 0.995114 0.427958 0.45532
69 1 0.341472 0.0110782 0.220627
187 1 0.569711 0.140427 0.118139
94 1 0.675359 0.106719 0.050234
165 1 0.685617 0.116539 0.216007
223 1 0.612464 0.237318 0.00525248
256 1 0.760782 0.225736 0.113093
61 1 0.639439 0.257724 0.164821
147 1 0.958989 0.147424 0.218954
431 2 0.964666 0.206205 0.112255
355 1 0.889776 0.122322 0.0794804
189 1 0.822815 0.140609 0.225903
296 1 0.790513 0.0495484 0.135851
220 1 0.489999 0.462172 0.258242
101 1 0.0457517 0.296071 0.221208
396 2 0.0652837 0.314389 0.110453
98 1 0.0665938 0.430648 0.246658
271 1 0.168419 0.36294 0.157003
157 1 0.0967282 0.410558 0.0383968
239 1 0.620293 0.0114311 0.137473
400 2 0.13339 0.355718 0.285081
211 1 0.848882 0.447156 0.408961
304 1 0.356652 0.363667 0.208851
76 1 0.367705 0.423465 0.071825
410 2 0.421839 0.314617 0.123547
8 1 0.260991 0.458611 0.148464
240 1 0.231167 0.390648 0.0146253
268 1 0.514455 0.26915 0.0862028
113 1 0.926 0.30288 0.407703
404 2 0.418771 0.458532 0.168679
208 1 0.547818 0.266678 0.469737
10 1 0.722293 0.458375 0.012637
100 1 0.512112 0.408426 0.105186
319 1 0.64112 0.374235 0.0842867
477 2 0.719303 0.352071 0.236879
200 1 0.688799 0.470428 0.170987
326 1 0.82996 0.356412 0.305679
408 2 0.990016 0.439336 0.00900676
213 1 0.868511 0.428455 0.0641035
140 1 0.904361 0.283981 0.0546506
14 1 0.76979 0.369286 0.138007
106 1 0.981647 0.378834 0.136237
388 2 0.937215 0.390714 0.321313
177 1 0.888226 0.275167 0.210579
351 1 0.894792 0.460144 0.22894
31 1 0.0387188 0.324068 0.346763
412 2 0.661828 0.317595 0.471362
428 2 0.625602 0.465951 0.411206
190 1 0.448482 0.354707 0.478982
66 1 0.110036 0.0471297 0.379527
249 1 0.0764202 0.166328 0.297672
455 2 0.241682 0.0880816 0.44792
73 1 0.226289 0.132696 0.336189
27 1 0.145384 0.173811 0.469993
260 1 0.355662 0.0996824 0.474001
356 1 0.318772 0.155385 0.238817
443 2 0.354573 0.141285 0.361544
333 1 0.427346 0.210919 0.441774
295 1 0.460868 0.0862567 0.360994
252 1 0.304567 0.0181166 0.36237
342 1 0.764631 0.483458 0.279059
221 1 0.43974 0.22222 0.292341
358 1 0.531534 0.00297998 0.465873
421 2 0.774966 0.0272921 0.418406
97 1 0.572964 0.137574 0.285989
420 2 0.520565 0.218302 0.368264
151 1 0.565114 0.00816331 0.32671
130 1 0.566785 0.133863 0.435925
204 1 0.700885 0.116371 0.366477
37 1 0.669595 0.0566854 0.49154
144 1 0.747173 0.24581 0.276693
13 1 0.501241 0.158217 0.00188873
454 2 0.967513 0.240158 0.29804
109 1 0.0128004 0.196851 0.414477
123 1 0.898852 0.0137577 0.451783
474 2 0.940307 0.122906 0.452611
331 1 0.798986 0.145052 0.463464
131 1 0.838652 0.057267 0.329477
170 1 0.976286 0.058177 0.342445
373 1 0.869929 0.18985 0.337625
300 1 0.294974 0.214992 0.432656
43 1 0.238215 0.4074 0.282579
222 1 0.155087 0.278548 0.0341518
235 1 0.119624 0.43142 0.373223
194 1 0.186262 0.283579 0.358973
248 1 0.251227 0.403568 0.416358
128 1 0.640224 0.239486 0.369171
64 1 0.501596 0.495062 0.433582
471 2 0.340992 0.323797 0.449034
320 1 0.333142 0.29945 0.334439
139 1 0.484791 0.326912 0.224476
156 1 0.396388 0.424103 0.366061
473 2 0.439244 0.308556 0.371888
93 1 0.726617 0.428105 0.474293
82 1 0.607435 0.375954 0.226778
344 1 0.693672 0.370217 0.344751
476 2 0.574763 0.280697 0.278305
22 1 0.543913 0.361208 0.361825
445 2 0.412954 -0.00315048 0.452274
41 1 0.770437 0.289701 0.423568
390 2 0.573017 0.491485 0.178354
1 1 0.356111 0.495926 0.251355
290 1 0.506918 0.0276074 0.0649762
446 2 0.469762 0.103688 0.469511
146 1 0.621918 0.494177 0.297598
395 2 0.096446 0.18198 0.000879515
323 1 0.978424 0.500427 0.329418
457 2 0.280479 0.00768479 0.0389564
367 1 0.036606 0.0649581 0.492414
371 1 0.0696627 0.296895 0.487538
225 1 0.135502 0.101737 0.679403
463 2 0.0914649 0.139236 0.572069
357 1 0.154938 0.238727 0.642167
354 1 0.248881 0.157076 0.551261
91 1 0.985114 0.193303 0.543296
138 1 0.0270994 0.281202 0.997884
117 1 0.163211 0.0245232 0.515415
172 1 0.292706 0.189424 0.691266
11 1 0.39995 0.0793313 0.710357
480 2 0.352127 0.113914 0.59173
209 1 0.413452 0.250373 0.699954
318 1 0.46374 0.159023 0.607346
17 1 0.483409 0.373928 0.978952
136 1 0.278481 0.0431682 0.628254
63 1 0.35271 0.262772 0.558211
275 1 0.564996 0.0634513 0.583715
160 1 0.743641 0.0840779 0.609873
435 2 0.527006 0.140258 0.717386
18 1 0.621045 0.174009 0.659229
424 2 0.558755 0.171869 0.553021
229 1 0.649994 0.0448052 0.69999
33 1 0.273831 0.474678 0.632852
422 2 0.465503 0.450129 0.89451
316 1 0.728694 0.131502 0.77336
293 1 0.0103577 0.0837304 0.631519
298 1 0.76989 0.211875 0.634984
238 1 0.88239 0.0767209 0.571884
202 1 0.850373 0.082837 0.719252
345 1 0.900145 0.188476 0.644552
286 1 0.867096 0.245812 0.519871
219 1 0.0123914 0.406034 0.613728
104 1 0.128293 0.377012 0.693458
180 1 0.209717 0.297669 0.523268
119 1 0.0329444 0.266757 0.662023
193 1 0.260704 0.330242 0.654265
112 1 0.946229 0.484089 0.833165
418 2 0.941263 0.25226 0.737256
475 2 0.617003 0.0229189 0.821346
149 1 0.392878 0.390594 0.667126
169 1 0.322091 0.393195 0.535296
386 2 0.195891 0.391195 0.58973
379 1 0.51007 0.286071 0.600916
263 1 0.875822 0.368898 0.812871
266 1 0.833771 0.438748 0.931011
270 1 0.856965 0.278584 0.920128
343 1 0.554426 0.400499 0.671575
291 1 0.64639 0.309378 0.601392
314 1 0.676202 0.436531 0.626641
16 1 0.55113 0.280077 0.738679
40 1 0.786369 0.389911 0.702653
264 1 0.777612 0.332553 0.564466
363 1 0.0713421 0.0677021 0.950509
174 1 0.950035 -0.0010019 0.946155
118 1 0.894097 0.477985 0.677429
425 2 0.960614 0.303368 0.563463
350 1 0.869973 0.422206 0.541132
259 1 0.906378 0.33517 0.665604
45 1 0.968234 0.372549 0.922124
224 1 0.785515 0.498665 0.604685
142 1 0.0320136 0.163518 0.748712
406 2 0.159638 0.184403 0.756782
127 1 0.248419 0.0479459 0.92454
201 1 0.129847 0.439302 0.505988
340 1 0.135514 0.0841695 0.820096
218 1 0.117126 0.219399 0.885316
53 1 0.215205 0.164541 0.985269
413 2 0.0283292 0.146833 0.872442
30 1 0.278207 0.0612382 0.777255
152 1 0.243546 0.186155 0.848521
429 2 0.341286 0.336482 0.768838
184 1 0.363119 0.158804 0.922154
392 2 0.359755 0.157083 0.794875
153 1 0.465333 0.159126 0.815977
65 1 0.390108 0.0374707 0.85081
70 1 0.514188 0.0324426 0.769582
120 1 0.689151 0.0765289 0.911575
352 1 0.52592 0.0652363 0.904997
251 1 0.695572 0.242405 0.88743
214 1 0.599821 0.147736 0.812978
453 2 0.588643 0.158538 0.926365
4 1 0.795626 0.171017 0.979358
257 1 0.543448 0.266519 0.883525
385 2 0.881901 0.0897147 0.935794
72 1 0.97785 0.253681 0.851193
244 1 0.964077 0.15872 0.97282
234 1 0.963113 0.0514429 0.81737
132 1 0.867135 0.155962 0.847103
2 1 0.468744 0.467569 0.577586
62 1 0.820653 0.246502 0.753293
54 1 0.185109 0.309191 0.7941
405 2 0.0744938 0.266573 0.77322
178 1 0.0084014 0.364501 0.768268
452 2 0.134073 0.422908 0.815702
299 1 0.116845 0.35211 0.914889
294 1 0.221877 0.456097 0.882844
111 1 0.0734378 0.480375 0.904214
181 1 0.0366485 0.496729 0.726674
164 1 0.423187 0.300723 0.834643
334 1 0.398583 0.456393 0.807584
15 1 0.26787 0.425732 0.767826
280 1 0.355555 0.40048 0.920363
36 1 0.277539 0.285548 0.934656
460 2 0.463519 0.376519 0.752671
468 2 0.570535 0.454941 0.959438
50 1 0.695991 0.277373 0.733652
383 1 0.658941 0.480182 0.87938
173 1 0.653995 0.413197 0.759683
335 1 0.748238 0.350722 0.841819
370 1 0.544958 0.395534 0.834884
23 1 0.627126 0.35794 0.940771
448 2 0.630596 0.32513 0.831421
302 1 0.823302 0.0293666 0.857395
353 1 0.580152 0.408605 0.519406
215 1 0.39565 0.0426807 0.994321
245 1 0.767077 0.492563 0.803348
133 1 0.420293 0.0158568 0.579818
141 1 0.753882 0.327455 0.990773
261 1 0.674101 0.191144 0.520418
423 2 0.252444 0.484233 0.520414
186 1 0.793799 0.0388556 0.990531
207 1 0.398469 0.274991 0.999617
236 1 0.158601 0.668536 0.027475
32 1 0.167791 0.738281 0.146507
310 1 0.0535024 0.75107 0.0481064
306 1 0.805775 0.577385 0.0214931
303 1 0.0684777 0.649621 0.164391
311 1 0.13455 0.694995 0.273277
74 1 0.374552 0.502524 0.480677
436 2 0.00873088 0.552173 0.222553
407 2 0.225861 0.520349 0.247026
450 2 0.392476 0.59896 0.237422
253 1 0.22984 0.610706 0.169523
366 1 0.354359 0.571345 0.116533
307 1 0.442944 0.690087 0.1012
230 1 0.474296 0.553008 0.166374
6 1 0.294096 0.700208 0.0671508
289 1 0.808549 0.527422 0.157731
417 2 0.367271 0.624222 0.0174936
161 1 0.528431 0.641306 -0.000574911
308 1 0.591708 0.621773 0.144546
449 2 0.808691 0.653964 0.251529
278 1 0.669663 0.715121 0.0590034
85 1 0.768452 0.82468 0.438799
440 2 0.691952 0.586674 0.0910097
297 1 0.707927 0.602786 0.235727
47 1 0.565132 0.768231 0.168829
327 1 0.780354 0.66082 0.133383
67 1 0.861655 0.760631 0.192492
466 2 0.962603 0.712117 0.132229
258 1 0.908268 0.623314 0.195649
274 1 0.860938 0.737158 0.0240916
265 1 0.942897 0.632974 0.0568363
195 1 0.127231 0.509829 0.151192
442 2 0.0918111 0.991888 0.130205
277 1 0.0404748 0.785477 0.194469
49 1 0.138004 0.853899 0.076355
330 1 0.0157219 0.927027 0.18516
192 1 0.407962 0.739593 0.484415
369 1 0.219968 0.962418 0.135831
397 2 0.242267 0.761378 0.242197
114 1 0.735896 0.976218 0.259147
384 1 0.600099 0.514177 0.059838
25 1 0.334662 0.704359 0.199765
439 2 0.356918 0.795861 0.0826261
99 1 0.270787 0.828884 0.148733
3 1 0.434811 0.814433 0.189104
78 1 0.392164 0.946822 0.097967
301 1 0.489991 0.943099 0.189064
60 1 0.462559 0.834881 0.0526177
349 1 0.938171 0.857778 0.269428
380 1 0.265357 0.883692 0.288095
196 1 0.829902 0.55178 0.477762
197 1 0.73813 0.935601 0.069644
402 2 0.528833 0.739503 0.0549645
137 1 0.613781 0.872125 0.056491
124 1 0.618492 0.888522 0.207625
437 2 0.612352 0.924936 0.482675
469 2 0.825863 0.830635 0.0800357
233 1 0.727197 0.807589 0.131399
171 1 0.89684 0.970146 0.0698345
228 1 0.934819 0.837217 0.0994923
179 1 0.829275 0.894597 0.171795
81 1 0.205727 0.553608 0.386408
376 1 0.11625 0.559705 0.288239
364 1 0.0105282 0.651086 0.346777
59 1 0.143762 0.679447 0.415794
19 1 0.0467133 0.55551 0.436238
29 1 0.0383186 0.935707 0.0466959
322 1 0.299311 0.61452 0.299946
148 1 0.434912 0.592755 0.358523
89 1 0.316266 0.624985 0.439194
381 1 0.295888 0.977295 0.490568
324 1 0.462246 0.679929 0.256079
464 2 0.376906 0.686931 0.359755
346 1 0.934507 0.868502 0.442706
80 1 0.267099 0.732563 0.360106
105 1 0.615572 0.702256 0.279396
199 1 0.477063 0.513148 0.00996217
292 1 0.74883 0.705911 0.327317
102 1 0.722205 0.567835 0.374579
122 1 0.586163 0.590084 0.385607
361 1 0.651964 0.680338 0.46026
279 1 0.510804 0.715162 0.397969
432 2 0.0123239 0.738194 0.428753
129 1 0.790918 0.676391 0.447261
315 1 0.887722 0.745675 0.35466
398 2 0.952832 0.707735 0.252703
255 1 0.936329 0.646664 0.460284
359 1 0.86197 0.589692 0.332963
375 1 0.0569071 0.577312 0.00690173
9 1 0.0334485 0.798519 0.334015
478 2 0.168515 0.799801 0.336128
242 1 0.19651 0.919141 0.396432
166 1 0.0685956 0.920659 0.463256
126 1 0.153991 0.866138 0.215862
382 1 0.138202 0.809293 0.47082
38 1 0.0676403 0.93669 0.310026
84 1 0.975801 0.505086 0.11807
87 1 0.403957 0.889949 0.490965
341 1 0.209299 0.526667 0.0339922
75 1 0.448399 0.95045 0.322206
419 2 0.374357 0.899679 0.228736
337 1 0.276327 0.824127 0.469949
456 2 0.320867 0.915001 0.394063
210 1 0.387883 0.806803 0.343101
231 1 0.669194 0.932591 0.380383
58 1 0.639882 0.802801 0.362978
247 1 0.517286 0.856293 0.430165
39 1 0.524847 0.836028 0.288068
441 2 0.952614 0.950572 0.352929
203 1 0.750293 0.829406 0.285987
108 1 0.832112 0.923524 0.362578
444 2 0.937801 0.533337 0.434117
415 2 0.300739 0.510013 0.351035
329 1 0.191067 0.998366 0.272464
283 1 0.638377 0.823424 0.503
44 1 0.760463 0.952928 0.495771
288 1 0.0713294 0.60217 0.645588
226 1 0.986703 0.526796 0.561074
162 1 0.949734 0.714066 0.630407
479 2 0.139619 0.735676 0.783861
462 2 0.609563 0.644229 0.563093
86 1 0.176202 0.585662 0.525689
24 1 0.904483 0.7548 0.748503
276 1 0.220802 0.621112 0.656439
185 1 0.40397 0.533421 0.665897
414 2 0.29503 0.702283 0.63819
198 1 0.332144 0.603574 0.573115
96 1 0.415441 0.700944 0.628721
188 1 0.0671011 0.674095 0.529919
472 2 0.288573 0.533734 0.724006
313 1 0.616728 0.991465 0.992936
143 1 0.522495 0.60572 0.640214
232 1 0.655575 0.742022 0.610931
243 1 0.674474 0.572045 0.708071
339 1 0.733015 0.626588 0.572642
250 1 0.632659 0.543661 0.511809
115 1 0.140587 0.490925 0.630837
227 1 0.945062 0.611544 0.734779
55 1 0.787022 0.725498 0.657552
48 1 0.80441 0.595248 0.712603
116 1 0.875565 0.610488 0.596086
409 2 0.500974 0.997356 0.653467
176 1 0.0901838 0.744634 0.668942
254 1 0.19563 0.843684 0.598443
163 1 0.147003 0.879826 0.715426
134 1 0.0982351 0.968931 0.615068
79 1 -0.000291134 0.865615 0.691576
168 1 0.00563103 0.801218 0.544244
467 2 0.0793612 0.858186 0.617324
332 1 0.225403 0.76067 0.704153
267 1 0.333367 0.811006 0.60966
20 1 0.363312 0.794991 0.741518
394 2 0.44433 0.807586 0.580321
447 2 0.339674 0.919429 0.587266
35 1 0.433369 0.887354 0.670207
90 1 0.291494 0.913749 0.701246
393 2 0.374029 0.980092 0.744825
312 1 0.721321 0.946505 0.782484
401 2 0.597738 0.845481 0.623111
325 1 0.66785 0.948949 0.59189
365 1 0.563232 0.914091 0.717004
34 1 0.526783 0.911729 0.567668
110 1 0.526974 0.771386 0.683561
159 1 0.684363 0.83412 0.720648
362 1 0.537513 0.739564 0.537782
309 1 0.33383 0.521715 0.970618
246 1 0.853941 0.892667 0.946633
391 2 0.8527 0.949772 0.756377
438 2 0.718696 0.741584 0.519272
107 1 0.747166 0.838503 0.587473
95 1 0.962371 0.948723 0.556646
269 1 0.881797 0.857101 0.630468
347 1 0.800883 0.96538 0.6412