ITEM: TIMESTEP
100000
ITEM: NUMBER OF ATOMS
2048
ITEM: BOX BOUNDS pp pp pp
0.0000000000000000e+00 1.1093780389610155e+01
0.0000000000000000e+00 1.1093780389610155e+01
0.0000000000000000e+00 1.1093780389610155e+01
ITEM: ATOMS id type xs ys zs
6 1 0.185859 0.0670929 0.00135319
10 1 0.310864 0.0594497 0.00300396
21 1 0.25289 0.1238 0.00011348
22 1 0.311432 0.190357 0.00142578
29 1 0.12662 0.253073 0.000212983
34 1 0.306554 0.313453 0.000701885
45 1 0.2461 0.37474 0.00195729
47 1 0.312142 0.372605 0.0577637
38 1 0.0605344 0.440685 0.00529558
42 1 0.185721 0.433622 0.00287398
46 1 0.313846 0.43836 0.00327905
53 1 0.125408 0.498254 0.00126337
57 1 0.251895 0.499472 0.00156947
54 1 0.186746 0.559514 0.0013294
58 1 0.31459 0.562672 0.000382597
65 1 0.124385 0.623392 0.00226921
69 1 0.247314 0.626062 0.000172087
62 1 0.0667558 0.687091 0.00177161
66 1 0.18931 0.686804 0.00340626
70 1 0.315021 0.686965 5.54779e-05
73 1 0.00338947 0.748716 0.00170598
77 1 0.127863 0.75156 0.000899977
85 1 0.0023038 0.87466 0.000342382
95 1 0.314535 0.87619 0.055771
86 1 0.0628374 0.939009 0.0017187
90 1 0.192974 0.937367 0.000716619
9 1 0.248522 0.997953 0.000929317
8 1 0.121492 0.0581564 0.0598142
11 1 0.311785 0.00139534 0.0669768
4 1 0.000922758 0.0595574 0.0634388
12 1 0.243776 0.0613925 0.0642764
15 1 0.0608674 0.123098 0.0610217
19 1 0.187361 0.124243 0.0609986
23 1 0.316951 0.12459 0.0606943
16 1 0.00377744 0.18704 0.0597014
20 1 0.125439 0.180994 0.0596116
24 1 0.247763 0.189015 0.0597707
27 1 0.0639703 0.250332 0.0608449
31 1 0.18417 0.251087 0.0638386
35 1 0.311335 0.252902 0.0630623
28 1 0.000501165 0.31216 0.0641488
32 1 0.125217 0.313301 0.0621447
36 1 0.243529 0.311085 0.0590561
39 1 0.0623613 0.372458 0.0623936
43 1 0.190229 0.374427 0.0645617
44 1 0.123076 0.437295 0.0633114
48 1 0.250591 0.434201 0.0628296
51 1 0.0593958 0.501748 0.0622876
55 1 0.192005 0.499004 0.0644245
59 1 0.315247 0.496355 0.0661198
52 1 0.00213621 0.567307 0.0633652
56 1 0.126697 0.558992 0.0626241
60 1 0.249754 0.561995 0.0612325
63 1 0.0635653 0.627465 0.0657635
67 1 0.186667 0.62967 0.0644458
71 1 0.310632 0.625786 0.0623952
68 1 0.12461 0.689506 0.0639396
72 1 0.247447 0.689074 0.0605779
75 1 0.0619747 0.747399 0.0673302
79 1 0.184812 0.746094 0.0645723
83 1 0.308208 0.75306 0.0631568
76 1 0.000817008 0.81224 0.0603355
80 1 0.122143 0.812356 0.0620523
84 1 0.243346 0.814446 0.0635631
87 1 0.0608158 0.875945 0.0622389
91 1 0.184308 0.87352 0.0644446
92 1 0.12606 0.936696 0.0592663
96 1 0.251329 0.933891 0.0625614
3 1 0.0632273 0.999063 0.0623197
7 1 0.186407 0.998572 0.0636344
105 1 0.253363 0.00219123 0.12537
98 1 0.0600778 0.0631452 0.123752
102 1 0.184613 0.0609537 0.122883
106 1 0.316012 0.0638005 0.125761
109 1 0.00173836 0.125171 0.124365
113 1 0.126229 0.120652 0.121801
117 1 0.244317 0.128206 0.126235
110 1 0.068342 0.19011 0.126599
114 1 0.18433 0.187358 0.122647
118 1 0.307969 0.185688 0.124739
121 1 0.0064738 0.247802 0.120907
125 1 0.123874 0.25352 0.126331
129 1 0.252611 0.255391 0.12625
122 1 0.0616284 0.315151 0.124623
126 1 0.187297 0.312256 0.125874
130 1 0.317447 0.314842 0.121959
133 1 0.00207457 0.374762 0.128594
137 1 0.122716 0.375796 0.125106
141 1 0.249545 0.373569 0.128159
134 1 0.0611064 0.443873 0.123757
138 1 0.188844 0.438959 0.123177
142 1 0.314858 0.434238 0.126867
149 1 0.125941 0.504662 0.125
153 1 0.25322 0.499442 0.128012
146 1 0.0625012 0.560846 0.125388
150 1 0.191722 0.55957 0.128198
154 1 0.311095 0.56473 0.121923
161 1 0.127354 0.622732 0.125057
165 1 0.251322 0.626451 0.124078
158 1 0.0638137 0.687744 0.127736
162 1 0.188505 0.687864 0.130335
166 1 0.311903 0.691021 0.123394
173 1 0.127027 0.747013 0.130923
177 1 0.250854 0.747065 0.127903
170 1 0.0600768 0.80907 0.124782
174 1 0.189704 0.812606 0.12929
178 1 0.31528 0.813917 0.121772
185 1 0.12684 0.872501 0.125949
189 1 0.251146 0.873026 0.12552
182 1 0.0644763 0.93658 0.126277
186 1 0.192106 0.935451 0.126063
190 1 0.310896 0.933074 0.124808
97 1 9.27881e-05 0.997389 0.124272
101 1 0.122927 0.998381 0.126244
99 1 0.0599208 8.84533e-05 0.185703
103 1 0.184739 0.00111979 0.18609
107 1 0.31079 0.00421534 0.192415
100 1 0.00216705 0.064805 0.188451
104 1 0.125431 0.0609816 0.186257
108 1 0.247883 0.0647347 0.188854
111 1 0.0661592 0.125638 0.18595
115 1 0.187233 0.128483 0.186885
119 1 0.313218 0.12641 0.187338
112 1 0.00137203 0.187482 0.187222
116 1 0.12861 0.187444 0.185474
120 1 0.24987 0.189787 0.189909
123 1 0.0611352 0.249062 0.186495
127 1 0.188963 0.247909 0.18396
131 1 0.312684 0.251164 0.187999
128 1 0.124685 0.313465 0.186461
132 1 0.249453 0.315705 0.188956
135 1 0.0672392 0.373236 0.186868
139 1 0.187071 0.379499 0.187295
143 1 0.31302 0.375184 0.18406
136 1 0.00525784 0.435528 0.188057
140 1 0.124769 0.438262 0.18594
144 1 0.250509 0.441541 0.187385
147 1 0.0645605 0.5002 0.188292
151 1 0.188346 0.499357 0.187039
155 1 0.314459 0.499243 0.190442
148 1 0.000603972 0.562521 0.187476
152 1 0.125656 0.559532 0.19009
156 1 0.257097 0.56101 0.188076
159 1 0.0658541 0.621379 0.191762
163 1 0.190501 0.621531 0.183774
167 1 0.313882 0.630053 0.186744
160 1 0.00314117 0.688256 0.190553
164 1 0.1285 0.685043 0.194035
168 1 0.25209 0.687297 0.184895
171 1 0.0641826 0.750958 0.192012
175 1 0.188635 0.750376 0.190619
179 1 0.31231 0.752911 0.187072
176 1 0.127118 0.813962 0.186804
180 1 0.251429 0.814348 0.1894
183 1 0.0603722 0.87853 0.186178
187 1 0.189287 0.876849 0.186244
191 1 0.310899 0.875571 0.190637
188 1 0.125206 0.93662 0.186771
192 1 0.248749 0.941186 0.187113
193 1 0.00367623 0.00245995 0.251697
201 1 0.247291 0.00304832 0.247605
194 1 0.0651311 0.064688 0.245346
198 1 0.185147 0.0633955 0.250601
202 1 0.313099 0.063359 0.249742
209 1 0.125767 0.124931 0.24737
213 1 0.251317 0.129375 0.251977
206 1 0.0642851 0.186975 0.246155
210 1 0.190168 0.186187 0.2522
214 1 0.313086 0.188906 0.252376
217 1 0.00268758 0.24592 0.25151
221 1 0.129141 0.247381 0.250118
225 1 0.250934 0.248587 0.251591
218 1 0.066825 0.309704 0.249099
222 1 0.187571 0.311548 0.247132
226 1 0.310156 0.312735 0.247936
229 1 0.00513749 0.37119 0.250677
233 1 0.129399 0.37495 0.248769
237 1 0.251695 0.374296 0.24428
230 1 0.0649081 0.438356 0.25063
234 1 0.185937 0.443368 0.248042
238 1 0.313695 0.432525 0.246677
241 1 0.0022489 0.500678 0.257084
245 1 0.127593 0.501487 0.252064
249 1 0.251158 0.501224 0.248401
242 1 0.0653676 0.55891 0.254265
246 1 0.193452 0.561888 0.250038
250 1 0.314519 0.560838 0.253019
253 1 0.00269861 0.621848 0.250056
257 1 0.127753 0.621385 0.252368
261 1 0.252652 0.628264 0.248505
254 1 0.0618536 0.69101 0.250115
258 1 0.192249 0.690981 0.249737
262 1 0.314392 0.688208 0.246491
269 1 0.130329 0.757326 0.249936
273 1 0.253018 0.750964 0.251373
266 1 0.0647299 0.816584 0.254193
270 1 0.189394 0.821022 0.246533
274 1 0.31494 0.812257 0.253042
277 1 0.00151518 0.873202 0.25108
281 1 0.123913 0.872215 0.250989
285 1 0.248572 0.878337 0.252273
278 1 0.0632907 0.936759 0.250284
282 1 0.185221 0.935692 0.24679
286 1 0.307703 0.937545 0.248839
197 1 0.123753 0.999297 0.24973
195 1 0.0616569 0.00139763 0.30926
203 1 0.31307 0.00241491 0.311048
196 1 0.00233811 0.0665567 0.310945
200 1 0.124658 0.0602591 0.312802
204 1 0.249595 0.0651064 0.312761
207 1 0.0648923 0.122897 0.311021
211 1 0.187368 0.124471 0.314724
215 1 0.312503 0.124041 0.311989
208 1 0.00581526 0.184349 0.313352
212 1 0.127776 0.183497 0.309036
216 1 0.250415 0.187592 0.312455
219 1 0.0666204 0.248436 0.310684
223 1 0.187722 0.246715 0.312724
227 1 0.306618 0.253141 0.312621
220 1 0.00719817 0.31235 0.313134
224 1 0.126236 0.309541 0.305084
228 1 0.251124 0.316847 0.310096
231 1 0.0736226 0.3718 0.312626
235 1 0.185125 0.374717 0.309161
239 1 0.311756 0.374025 0.309759
232 1 0.00796829 0.437241 0.313368
236 1 0.126518 0.439 0.31248
240 1 0.250632 0.43086 0.313892
243 1 0.0648925 0.497755 0.319444
247 1 0.188492 0.49925 0.312952
251 1 0.312918 0.497526 0.312635
244 1 0.00485274 0.564099 0.313997
248 1 0.125661 0.563019 0.314131
252 1 0.248194 0.563954 0.31637
255 1 0.0665107 0.622614 0.313063
259 1 0.187593 0.627144 0.313404
263 1 0.308814 0.624335 0.314388
256 1 0.00218281 0.685916 0.314405
260 1 0.12528 0.688952 0.310073
264 1 0.251429 0.686662 0.312076
267 1 0.0696482 0.750498 0.311451
271 1 0.191428 0.749851 0.314283
275 1 0.316087 0.745895 0.314042
268 1 0.000868665 0.811457 0.313354
272 1 0.130927 0.816302 0.315158
276 1 0.25273 0.814297 0.313089
279 1 0.0655427 0.874281 0.317232
283 1 0.189063 0.87897 0.311087
287 1 0.311895 0.877474 0.311032
280 1 0.00076698 0.93555 0.310909
284 1 0.126799 0.936495 0.311631
199 1 0.185568 0.996479 0.311453
288 1 0.247088 0.941395 0.312463
298 1 0.313817 0.0584589 0.374515
290 1 0.061408 0.0614205 0.376955
294 1 0.188873 0.0660225 0.375572
305 1 0.125471 0.125873 0.376061
309 1 0.250139 0.126113 0.373903
302 1 0.0646661 0.188984 0.376259
306 1 0.18862 0.185206 0.374725
310 1 0.314563 0.188729 0.374998
313 1 0.00314288 0.247746 0.37336
317 1 0.126832 0.248393 0.376831
321 1 0.247729 0.250186 0.374829
314 1 0.0648887 0.308106 0.377118
318 1 0.189461 0.309574 0.370977
322 1 0.320919 0.311875 0.372674
325 1 0.00704635 0.376034 0.376337
329 1 0.129457 0.374526 0.373338
333 1 0.246429 0.372919 0.377131
326 1 0.0674144 0.438895 0.378546
330 1 0.19052 0.437416 0.376194
334 1 0.312586 0.43402 0.373013
337 1 0.0039746 0.500267 0.377664
341 1 0.128748 0.499791 0.377921
345 1 0.249026 0.497939 0.372496
338 1 0.06309 0.562158 0.377346
342 1 0.189214 0.559533 0.378003
346 1 0.309309 0.560751 0.373245
349 1 0.00204189 0.623594 0.379275
353 1 0.127675 0.623791 0.374368
357 1 0.248048 0.624859 0.374798
350 1 0.0679849 0.690394 0.373692
354 1 0.192278 0.686172 0.371911
358 1 0.310386 0.688678 0.376777
365 1 0.132039 0.749123 0.376491
369 1 0.250205 0.750428 0.374493
362 1 0.0677381 0.809379 0.37224
366 1 0.18842 0.815997 0.377268
370 1 0.312404 0.811777 0.37805
377 1 0.128724 0.874364 0.372599
381 1 0.251906 0.878321 0.374478
374 1 0.0625442 0.934564 0.379512
378 1 0.187404 0.938375 0.376801
382 1 0.312827 0.93949 0.371789
293 1 0.124378 0.996601 0.377351
297 1 0.250312 0.999988 0.377021
295 1 0.186737 0.00274872 0.439523
292 1 0.00209337 0.0615072 0.44082
296 1 0.124852 0.0628259 0.43565
300 1 0.253695 0.062504 0.437224
303 1 0.0590125 0.125139 0.436254
307 1 0.187206 0.123328 0.441498
311 1 0.313262 0.124111 0.435165
304 1 0.00218605 0.188695 0.438855
308 1 0.121267 0.188063 0.440547
312 1 0.249258 0.187245 0.436193
315 1 0.0659748 0.252152 0.439141
319 1 0.19108 0.255972 0.435575
323 1 0.319614 0.249319 0.436963
320 1 0.12849 0.314198 0.434278
324 1 0.252164 0.310761 0.435677
327 1 0.0681346 0.377182 0.438021
331 1 0.193059 0.374756 0.438998
335 1 0.309521 0.374842 0.438477
332 1 0.126577 0.437505 0.438415
336 1 0.251264 0.436509 0.43579
339 1 0.0594518 0.503246 0.444057
343 1 0.187552 0.496793 0.438358
347 1 0.308816 0.499881 0.434438
340 1 0.000905821 0.567021 0.440637
344 1 0.124786 0.559783 0.438521
348 1 0.250407 0.560844 0.437976
351 1 0.0643213 0.625306 0.438643
355 1 0.186864 0.623446 0.436225
359 1 0.309927 0.623219 0.434388
352 1 0.00210829 0.686616 0.437225
356 1 0.127481 0.690398 0.43828
360 1 0.243971 0.684143 0.435583
363 1 0.0663559 0.749563 0.436839
367 1 0.189643 0.752756 0.437101
371 1 0.315052 0.746535 0.440006
364 1 0.00212994 0.813556 0.432086
368 1 0.126338 0.815265 0.436942
372 1 0.2509 0.81635 0.438402
375 1 0.064547 0.869933 0.437023
379 1 0.184892 0.87552 0.439279
383 1 0.311995 0.880048 0.437331
376 1 0.00458607 0.934168 0.438829
380 1 0.127304 0.934046 0.435275
384 1 0.248578 0.937752 0.442384
291 1 0.0600278 0.997634 0.436199
299 1 0.31504 0.999049 0.438595
389 1 0.126473 0.00229755 0.496947
393 1 0.251446 0.00175997 0.501458
386 1 0.065487 0.0630707 0.498405
390 1 0.186541 0.0632506 0.499661
394 1 0.311794 0.0607962 0.501276
397 1 0.00269574 0.124288 0.504317
401 1 0.124083 0.125101 0.501528
405 1 0.251687 0.127939 0.49716
398 1 0.0640793 0.188385 0.500692
402 1 0.188263 0.189164 0.497156
406 1 0.314509 0.189077 0.494883
409 1 7.54329e-05 0.251668 0.497558
413 1 0.133116 0.254697 0.496413
417 1 0.254227 0.251853 0.496396
410 1 0.0698827 0.312733 0.496248
414 1 0.191793 0.314092 0.497236
418 1 0.312543 0.313784 0.502122
425 1 0.127456 0.375296 0.498057
429 1 0.250384 0.374405 0.50615
422 1 0.0601468 0.436831 0.497496
426 1 0.191797 0.435141 0.50164
430 1 0.31152 0.433477 0.496583
437 1 0.126814 0.496242 0.499051
441 1 0.247679 0.497715 0.500316
434 1 0.059764 0.563398 0.502175
438 1 0.185868 0.559401 0.499422
442 1 0.310938 0.556112 0.500157
445 1 0.00309494 0.626289 0.50438
449 1 0.129526 0.624853 0.499987
453 1 0.249399 0.619503 0.499758
446 1 0.0643844 0.685375 0.498236
450 1 0.187833 0.684905 0.501514
454 1 0.313965 0.684308 0.499859
457 1 0.00293712 0.749792 0.497944
461 1 0.128416 0.746327 0.498052
465 1 0.247934 0.747479 0.496391
458 1 0.066402 0.80728 0.498848
462 1 0.189807 0.813679 0.499846
466 1 0.313595 0.815762 0.498616
469 1 0.0045131 0.874441 0.499935
473 1 0.122839 0.873539 0.499868
477 1 0.24852 0.876041 0.502379
470 1 0.0680522 0.93908 0.498023
474 1 0.184653 0.936837 0.500123
478 1 0.311524 0.939352 0.499262
392 1 0.124378 0.0649425 0.563032
396 1 0.249279 0.0670703 0.561255
399 1 0.0672119 0.127123 0.568726
403 1 0.191289 0.128933 0.562385
407 1 0.309223 0.128786 0.556645
404 1 0.127962 0.19292 0.558073
408 1 0.251587 0.191049 0.558331
411 1 0.0535349 0.253231 0.560027
415 1 0.191047 0.250893 0.561014
419 1 0.312642 0.251905 0.559477
412 1 0.000492036 0.318894 0.557636
416 1 0.131234 0.314174 0.562641
420 1 0.249058 0.311594 0.567418
423 1 0.062116 0.375268 0.555669
427 1 0.185912 0.378212 0.562534
431 1 0.316022 0.371995 0.563639
428 1 0.123284 0.434202 0.555268
432 1 0.249263 0.434977 0.567897
435 1 0.0609161 0.499369 0.557298
439 1 0.186138 0.496578 0.565346
443 1 0.305907 0.498562 0.563754
440 1 0.125773 0.556192 0.565358
444 1 0.246931 0.55932 0.564228
447 1 0.0667398 0.626358 0.56264
451 1 0.187831 0.620734 0.562698
455 1 0.31222 0.621294 0.565681
452 1 0.125911 0.687738 0.559736
456 1 0.251855 0.685051 0.562711
459 1 0.0667629 0.74915 0.560714
463 1 0.190512 0.748347 0.563449
467 1 0.316477 0.746481 0.560128
460 1 0.00561159 0.8093 0.559167
464 1 0.126319 0.811161 0.55962
468 1 0.254738 0.811105 0.563482
471 1 0.0630819 0.873441 0.559948
475 1 0.188928 0.87342 0.562222
479 1 0.30779 0.877124 0.563658
476 1 0.126722 0.935664 0.565232
480 1 0.247619 0.937846 0.561823
387 1 0.0608979 0.999211 0.559543
391 1 0.189323 0.999963 0.566194
395 1 0.311024 0.998162 0.566568
485 1 0.123506 0.00101479 0.622301
489 1 0.246538 0.0011471 0.62323
482 1 0.0591756 0.062903 0.622211
486 1 0.185776 0.0647665 0.624211
490 1 0.313029 0.0616525 0.626323
497 1 0.127551 0.124337 0.622416
501 1 0.251592 0.123757 0.622844
494 1 0.0646602 0.191202 0.623004
498 1 0.191166 0.186875 0.62541
502 1 0.314488 0.188689 0.621652
509 1 0.129735 0.252709 0.625409
513 1 0.250185 0.249289 0.624319
506 1 0.0584301 0.312375 0.62097
510 1 0.189918 0.316711 0.626165
514 1 0.310003 0.314667 0.626367
517 1 0.00388651 0.376407 0.617808
521 1 0.119313 0.373751 0.624302
525 1 0.251305 0.378373 0.630324
518 1 0.0614516 0.440234 0.620447
522 1 0.183336 0.436633 0.626982
526 1 0.310585 0.439756 0.62555
533 1 0.123239 0.499418 0.623906
537 1 0.249604 0.501976 0.628955
530 1 0.0626027 0.561214 0.62718
534 1 0.188232 0.561801 0.626196
538 1 0.309832 0.559929 0.62447
541 1 0.00110662 0.622947 0.624676
545 1 0.128674 0.624004 0.626213
549 1 0.246985 0.626613 0.626081
542 1 0.0620349 0.686467 0.623296
546 1 0.188726 0.690914 0.627887
550 1 0.310986 0.684221 0.62786
557 1 0.124918 0.746481 0.627296
561 1 0.255342 0.74977 0.62718
554 1 0.0654356 0.810024 0.624738
558 1 0.18511 0.812276 0.62184
562 1 0.314989 0.811324 0.624636
565 1 0.00201542 0.874677 0.61797
569 1 0.125365 0.873761 0.623217
573 1 0.248479 0.875413 0.624934
566 1 0.0636782 0.934138 0.623204
570 1 0.183846 0.936494 0.626677
574 1 0.307027 0.940416 0.628443
483 1 0.0574945 0.00242486 0.685114
487 1 0.184071 0.000815234 0.685013
491 1 0.311072 0.00246005 0.685965
488 1 0.12216 0.0663983 0.685848
492 1 0.244786 0.0620775 0.687896
495 1 0.0632088 0.12861 0.685989
499 1 0.18761 0.12757 0.685196
503 1 0.310671 0.127038 0.685003
496 1 0.000161914 0.188871 0.686264
500 1 0.124863 0.183142 0.684117
504 1 0.252145 0.189473 0.687399
507 1 0.0646948 0.251204 0.689615
511 1 0.187891 0.253912 0.686718
515 1 0.31226 0.25103 0.684903
512 1 0.11982 0.319239 0.684927
516 1 0.249517 0.317723 0.685638
519 1 0.052896 0.374745 0.683537
523 1 0.182242 0.37636 0.690251
527 1 0.313423 0.380423 0.688294
524 1 0.119099 0.435673 0.687451
528 1 0.248075 0.437769 0.690346
531 1 0.0614963 0.497527 0.685549
535 1 0.180525 0.495307 0.689396
539 1 0.314501 0.498946 0.689082
532 1 0.00253452 0.563 0.691334
536 1 0.124627 0.564196 0.684731
540 1 0.25127 0.560144 0.689197
543 1 0.0667751 0.626903 0.689768
547 1 0.190318 0.6244 0.690482
551 1 0.311595 0.626265 0.694669
544 1 0.00246187 0.682126 0.686403
548 1 0.130705 0.686527 0.688797
552 1 0.250553 0.688725 0.689616
555 1 0.059501 0.747059 0.688692
559 1 0.19193 0.75349 0.685406
563 1 0.315513 0.751473 0.689417
556 1 0.00181044 0.816562 0.683799
560 1 0.125493 0.811653 0.68715
564 1 0.25154 0.814027 0.685315
567 1 0.0653517 0.873901 0.685019
571 1 0.189446 0.874677 0.685525
575 1 0.309323 0.875972 0.684576
568 1 0.00254623 0.93374 0.683851
572 1 0.123185 0.935802 0.684988
576 1 0.244081 0.940715 0.686992
578 1 0.0570182 0.0604455 0.750406
582 1 0.18652 0.0612406 0.748693
586 1 0.312508 0.0603314 0.747629
593 1 0.124443 0.126889 0.74982
597 1 0.244304 0.125 0.750357
590 1 0.0626382 0.191264 0.748206
594 1 0.185806 0.188329 0.749252
598 1 0.315839 0.194407 0.749095
605 1 0.126099 0.252084 0.751275
609 1 0.247848 0.250791 0.748681
602 1 0.0604173 0.309826 0.751917
606 1 0.183556 0.312433 0.749288
610 1 0.312244 0.311958 0.7489
617 1 0.119128 0.373483 0.749163
621 1 0.251231 0.376433 0.750666
614 1 0.0550781 0.435915 0.748338
618 1 0.18206 0.437385 0.750843
622 1 0.310479 0.436115 0.752838
629 1 0.119505 0.498759 0.75089
633 1 0.251096 0.499069 0.748442
626 1 0.0600708 0.562084 0.751577
630 1 0.187234 0.558362 0.748804
634 1 0.311896 0.559873 0.750054
637 1 0.000974645 0.624072 0.756715
641 1 0.126129 0.62382 0.748845
645 1 0.249153 0.624132 0.750386
638 1 0.0632491 0.686165 0.748803
642 1 0.188431 0.687637 0.750924
646 1 0.316158 0.689347 0.750586
649 1 0.00010248 0.750586 0.750777
653 1 0.122993 0.750426 0.743134
657 1 0.254087 0.751209 0.748788
650 1 0.0603866 0.812065 0.750995
654 1 0.186153 0.812678 0.747893
658 1 0.312568 0.815945 0.746658
665 1 0.123998 0.873044 0.748403
669 1 0.250638 0.874726 0.747859
662 1 0.0607757 0.938664 0.743863
666 1 0.183695 0.933409 0.74678
670 1 0.305536 0.938923 0.7471
581 1 0.122516 0.998002 0.749849
585 1 0.248774 0.99896 0.74953
587 1 0.311622 0.000503268 0.811831
584 1 0.123988 0.063319 0.810919
588 1 0.248414 0.0635904 0.814885
591 1 0.0587577 0.124917 0.808541
595 1 0.188248 0.124202 0.808851
599 1 0.310139 0.124597 0.810008
596 1 0.125066 0.187713 0.814896
600 1 0.246747 0.18903 0.810539
603 1 0.0616764 0.249726 0.810616
607 1 0.18595 0.252129 0.812953
611 1 0.310955 0.247192 0.814812
604 1 0.00102613 0.313333 0.813172
608 1 0.122636 0.312076 0.814441
612 1 0.249614 0.314946 0.814592
615 1 0.0596216 0.377995 0.812615
619 1 0.183006 0.377417 0.815837
623 1 0.311453 0.379288 0.816318
620 1 0.121369 0.440134 0.813596
624 1 0.243729 0.438097 0.813821
627 1 0.0595309 0.504008 0.813369
631 1 0.184526 0.499324 0.810581
635 1 0.307591 0.497926 0.814692
632 1 0.127617 0.564547 0.809064
636 1 0.245443 0.557508 0.812597
639 1 0.0636697 0.622607 0.816577
643 1 0.186976 0.627396 0.816077
647 1 0.309196 0.621671 0.811345
644 1 0.128524 0.690978 0.814485
648 1 0.249649 0.686798 0.812802
651 1 0.0632257 0.747846 0.813373
655 1 0.184672 0.75048 0.81124
659 1 0.316563 0.747654 0.817644
656 1 0.125001 0.810709 0.810838
660 1 0.255364 0.811628 0.809634
663 1 0.0640407 0.872417 0.812432
667 1 0.186502 0.877036 0.810405
664 1 0.00253342 0.934222 0.81237
668 1 0.121257 0.936696 0.81378
672 1 0.247314 0.937957 0.815464
671 1 0.313518 0.882741 0.80747
579 1 0.0606733 0.999282 0.809924
583 1 0.186232 0.995286 0.807454
677 1 0.122699 0.00454483 0.871758
674 1 0.0612552 0.0627422 0.86848
678 1 0.186705 0.0623171 0.874529
682 1 0.31203 0.0663016 0.873199
689 1 0.128781 0.124987 0.872974
693 1 0.248562 0.125857 0.875432
686 1 0.0588987 0.185119 0.874175
690 1 0.186801 0.185185 0.878491
694 1 0.307234 0.190066 0.877893
701 1 0.121964 0.252298 0.874449
705 1 0.246475 0.248888 0.876996
698 1 0.0610311 0.312472 0.872788
702 1 0.188825 0.311512 0.872929
706 1 0.310437 0.313079 0.874474
713 1 0.121348 0.373637 0.873886
717 1 0.247004 0.373991 0.872939
710 1 0.0637078 0.44277 0.873131
714 1 0.182111 0.437132 0.87343
718 1 0.307074 0.438239 0.876375
721 1 0.00049461 0.506652 0.879144
725 1 0.123227 0.502139 0.871681
729 1 0.246406 0.499277 0.877031
722 1 0.0642866 0.5636 0.875799
726 1 0.184289 0.561929 0.87726
730 1 0.308628 0.557469 0.877322
737 1 0.128516 0.629281 0.878557
741 1 0.250532 0.623566 0.878575
734 1 0.0634012 0.688214 0.876427
738 1 0.189107 0.68726 0.879331
742 1 0.313703 0.684326 0.87785
749 1 0.126968 0.749645 0.875181
753 1 0.251727 0.745504 0.878936
746 1 0.0666015 0.813739 0.878504
750 1 0.188488 0.811124 0.871599
754 1 0.314719 0.809855 0.87747
757 1 0.000191902 0.871808 0.876055
761 1 0.12614 0.876115 0.87542
765 1 0.251254 0.868863 0.876416
758 1 0.0620248 0.932169 0.875559
762 1 0.187285 0.935718 0.874639
766 1 0.312863 0.937594 0.876346
673 1 0.000460149 0.998242 0.872173
681 1 0.249577 0.99911 0.874553
679 1 0.187452 0.00180565 0.933326
683 1 0.310616 0.000941785 0.935519
680 1 0.123767 0.0596938 0.932895
684 1 0.249834 0.0640328 0.934035
687 1 0.063975 0.122265 0.930944
691 1 0.186511 0.12349 0.939126
695 1 0.313351 0.121955 0.937406
688 1 2.71818e-05 0.189536 0.936844
692 1 0.121898 0.186839 0.93441
696 1 0.248602 0.185709 0.93977
699 1 0.0608022 0.252098 0.935242
703 1 0.185477 0.250549 0.935322
707 1 0.307795 0.249765 0.937194
704 1 0.125419 0.314885 0.935134
708 1 0.246139 0.308074 0.934007
711 1 0.0630057 0.375326 0.934957
715 1 0.188579 0.376725 0.935328
719 1 0.310395 0.375373 0.938653
712 1 0.00153769 0.434629 0.939524
716 1 0.123852 0.434903 0.939263
723 1 0.0630053 0.499613 0.938301
727 1 0.184445 0.497138 0.939329
731 1 0.311267 0.496979 0.94056
728 1 0.121098 0.567071 0.937202
732 1 0.246641 0.559613 0.940156
735 1 0.0593378 0.627596 0.936853
739 1 0.187709 0.627462 0.939493
743 1 0.311171 0.624418 0.941042
740 1 0.125592 0.688968 0.940598
747 1 0.066255 0.750125 0.940379
751 1 0.188346 0.750621 0.93765
755 1 0.314249 0.750234 0.940662
752 1 0.12885 0.810993 0.939279
756 1 0.250046 0.810196 0.935444
759 1 0.0620128 0.875511 0.938239
763 1 0.188817 0.875206 0.937517
767 1 0.310824 0.876141 0.936973
760 1 0.000368237 0.938966 0.939067
764 1 0.122752 0.941028 0.935994
768 1 0.248911 0.940359 0.935176
675 1 0.0615567 0.99688 0.935487
2 1 0.0654172 0.0609948 0.99205
17 1 0.124548 0.124902 0.996141
14 1 0.0616574 0.187918 0.99752
18 1 0.184707 0.18903 0.998928
33 1 0.244709 0.25022 0.999151
26 1 0.0632787 0.310519 0.997273
30 1 0.185707 0.312221 0.996212
41 1 0.119098 0.373405 0.999696
720 1 0.252525 0.436725 0.942566
50 1 0.059879 0.56449 0.998097
744 1 0.251317 0.686395 0.941516
81 1 0.250618 0.75027 0.996302
74 1 0.0648988 0.81273 0.999862
748 1 0.0035438 0.808496 0.941406
78 1 0.189415 0.811244 0.994814
82 1 0.312958 0.810343 0.997649
89 1 0.126224 0.880037 0.99587
93 1 0.25201 0.872338 0.99907
94 1 0.314386 0.94076 0.99975
5 1 0.126861 0.99978 0.996014
777 1 0.622364 0.00441744 0.00170644
783 1 0.501551 0.125801 3.70512e-06
787 1 0.625679 0.125029 0.00241459
784 1 0.5609 0.185775 0.000648296
793 1 0.500266 0.25275 0.000121204
797 1 0.622098 0.255477 0.00173068
794 1 0.560855 0.313841 0.00228315
801 1 0.438144 0.373119 0.0566557
807 1 0.623469 0.373108 0.0014229
809 1 0.376873 0.499108 0.00248488
817 1 0.622659 0.501019 0.00133782
810 1 0.436505 0.559813 0.000293469
814 1 0.55934 0.559654 0.000948008
819 1 0.373096 0.628505 0.000807315
823 1 0.499847 0.624448 0.00141101
827 1 0.626069 0.626008 0.00207452
820 1 0.437931 0.686726 0.000778646
824 1 0.560414 0.685221 0.000759871
829 1 0.378744 0.751043 0.000139553
837 1 0.620915 0.751489 0.00282455
834 1 0.56296 0.814235 0.00288068
847 1 0.623382 0.874716 0.00301293
840 1 0.435657 0.933754 0.000750874
844 1 0.559846 0.93832 0.00106658
769 1 0.375773 0.997071 0.00098241
773 1 0.497617 0.996387 0.00201254
775 1 0.56125 0.00311543 0.0606
772 1 0.378192 0.0624806 0.0597895
776 1 0.5006 0.0649844 0.063459
778 1 0.627722 0.0652987 0.0636204
781 1 0.439151 0.123844 0.0616847
785 1 0.563084 0.123312 0.0645579
782 1 0.371311 0.189368 0.0620922
786 1 0.499456 0.184164 0.0621769
788 1 0.625629 0.183514 0.0592399
791 1 0.437277 0.248978 0.0627618
795 1 0.558243 0.248948 0.0626882
792 1 0.37537 0.309952 0.0612355
796 1 0.503657 0.31329 0.0636447
798 1 0.627418 0.315279 0.0639176
805 1 0.563712 0.376488 0.0616765
802 1 0.373642 0.434833 0.0631659
806 1 0.500336 0.435928 0.0598115
808 1 0.62814 0.434278 0.0678823
811 1 0.437596 0.499619 0.0639519
815 1 0.561791 0.505711 0.0651756
812 1 0.374043 0.563529 0.0671188
816 1 0.496729 0.564665 0.0640449
818 1 0.623011 0.564979 0.0594249
821 1 0.434695 0.624459 0.0660598
825 1 0.560203 0.625633 0.0624402
822 1 0.374415 0.69066 0.0630761
826 1 0.498734 0.685163 0.0649753
828 1 0.625031 0.684518 0.0606822
831 1 0.438863 0.753843 0.06029
835 1 0.55843 0.748275 0.0638418
832 1 0.375065 0.811784 0.0605863
836 1 0.501448 0.813404 0.0656688
838 1 0.624189 0.808894 0.0643226
841 1 0.433251 0.869954 0.0611961
845 1 0.559255 0.877784 0.066078
842 1 0.374985 0.937703 0.0658665
846 1 0.498912 0.937522 0.0686552
848 1 0.623938 0.936633 0.0624525
771 1 0.438406 0.999783 0.0651918
857 1 0.62977 0.00463175 0.130322
850 1 0.434977 0.0606981 0.129817
854 1 0.565234 0.059344 0.125523
859 1 0.375264 0.128897 0.123019
863 1 0.49811 0.120207 0.126239
867 1 0.627004 0.12767 0.123516
860 1 0.4395 0.185693 0.127369
864 1 0.560802 0.184708 0.128359
869 1 0.37555 0.245465 0.12473
873 1 0.500423 0.250023 0.127791
877 1 0.622786 0.245187 0.124579
870 1 0.439522 0.315282 0.12604
874 1 0.559276 0.310738 0.126287
879 1 0.382673 0.376998 0.129608
883 1 0.49808 0.373828 0.122416
887 1 0.624947 0.370884 0.127508
880 1 0.442001 0.437735 0.124061
884 1 0.561717 0.437087 0.125296
889 1 0.376481 0.493229 0.124117
893 1 0.501092 0.501453 0.129221
897 1 0.623444 0.498867 0.124452
890 1 0.436938 0.564227 0.125798
894 1 0.563002 0.566157 0.127732
899 1 0.373984 0.627526 0.124953
903 1 0.497154 0.62511 0.126318
907 1 0.621633 0.62793 0.12227
900 1 0.438446 0.685219 0.127995
904 1 0.56171 0.686211 0.12862
909 1 0.37555 0.751629 0.12487
913 1 0.503358 0.750813 0.126847
917 1 0.624667 0.746388 0.125069
910 1 0.438418 0.811805 0.12704
914 1 0.566674 0.815499 0.127365
919 1 0.374467 0.87807 0.127072
923 1 0.50184 0.869858 0.128423
927 1 0.62572 0.87778 0.128334
920 1 0.437858 0.938178 0.123786
924 1 0.563953 0.939921 0.129326
849 1 0.372508 0.998321 0.130359
853 1 0.503933 0.997354 0.128406
852 1 0.375269 0.0646958 0.184766
856 1 0.501404 0.0598248 0.18406
858 1 0.630492 0.0640195 0.187636
861 1 0.438408 0.12401 0.190782
865 1 0.560257 0.121294 0.184831
862 1 0.376938 0.186775 0.189961
866 1 0.499991 0.186111 0.187731
868 1 0.624619 0.187822 0.18688
871 1 0.435624 0.250489 0.188306
875 1 0.563626 0.248619 0.186289
872 1 0.377245 0.313787 0.188008
876 1 0.505051 0.309103 0.192228
878 1 0.627634 0.311565 0.184782
881 1 0.443746 0.372229 0.190099
885 1 0.561923 0.37344 0.186795
882 1 0.372667 0.439795 0.185228
886 1 0.497383 0.436222 0.188128
888 1 0.624326 0.437993 0.183006
891 1 0.437049 0.499735 0.188003
895 1 0.561471 0.497383 0.187817
892 1 0.374947 0.560213 0.188132
896 1 0.499129 0.561721 0.185819
898 1 0.61985 0.564386 0.192693
901 1 0.436319 0.622855 0.187796
905 1 0.560767 0.626794 0.188706
902 1 0.374759 0.685305 0.186749
906 1 0.499688 0.68373 0.190358
908 1 0.625714 0.685468 0.18801
911 1 0.437483 0.749692 0.19187
915 1 0.56543 0.745613 0.18871
912 1 0.373678 0.811445 0.189644
916 1 0.501615 0.806365 0.192882
918 1 0.628657 0.81085 0.187286
921 1 0.436411 0.875798 0.186664
925 1 0.565707 0.868852 0.188796
922 1 0.368946 0.939546 0.187935
926 1 0.501271 0.934154 0.18512
928 1 0.627515 0.939876 0.189479
851 1 0.439275 0.996061 0.188186
855 1 0.563436 0.998398 0.190681
929 1 0.374911 0.00466545 0.250547
933 1 0.500528 0.00101656 0.252331
937 1 0.624414 0.00423428 0.248996
930 1 0.43737 0.0630982 0.250187
934 1 0.564379 0.0655037 0.254612
939 1 0.371685 0.120794 0.251331
943 1 0.500173 0.124589 0.247567
947 1 0.622771 0.1231 0.245841
940 1 0.434373 0.190238 0.251462
944 1 0.56294 0.187186 0.249358
949 1 0.376449 0.253187 0.249648
953 1 0.498388 0.251237 0.252928
957 1 0.626975 0.248789 0.251582
950 1 0.441978 0.318144 0.251492
954 1 0.564454 0.312573 0.253697
959 1 0.375607 0.372507 0.246576
963 1 0.502118 0.377602 0.253467
967 1 0.625393 0.372188 0.252202
960 1 0.439127 0.438304 0.249536
964 1 0.563672 0.437947 0.248659
969 1 0.374832 0.500677 0.248841
973 1 0.501118 0.498537 0.250085
977 1 0.625179 0.499266 0.252914
970 1 0.438234 0.55995 0.249973
974 1 0.564342 0.565465 0.2569
979 1 0.371604 0.624225 0.250765
983 1 0.499056 0.624944 0.249579
987 1 0.625723 0.629633 0.252499
980 1 0.434804 0.689036 0.254234
984 1 0.566783 0.686165 0.251815
989 1 0.375414 0.752583 0.251351
993 1 0.502493 0.744466 0.251739
997 1 0.626993 0.748152 0.252228
990 1 0.43635 0.814115 0.251571
994 1 0.565272 0.807254 0.254162
999 1 0.37753 0.875607 0.250504
1003 1 0.501772 0.871727 0.248772
1007 1 0.630162 0.870883 0.253714
1000 1 0.4406 0.934577 0.250977
1004 1 0.566605 0.936228 0.251289
932 1 0.375654 0.0592158 0.316815
936 1 0.504707 0.0652576 0.311896
938 1 0.626257 0.0618532 0.314791
941 1 0.437174 0.119604 0.315378
945 1 0.562299 0.125883 0.313179