ITEM: TIMESTEP
100000
ITEM: NUMBER OF ATOMS
2048
ITEM: BOX BOUNDS pp pp pp
0.0000000000000000e+00 1.2302095357258066e+01
0.0000000000000000e+00 1.2302095357258066e+01
0.0000000000000000e+00 1.2302095357258066e+01
ITEM: ATOMS id type xs ys zs
1191 1 0.661526 0.299855 0.253361
159 1 0.769162 0.751746 0.0148672
1463 1 0.812059 0.681634 0.0181903
531 1 0.57431 0.745842 0.0153673
1501 1 0.414797 0.775088 0.0377388
501 1 0.664917 0.784631 0.054541
464 1 0.572386 0.536829 0.0661398
1490 1 0.667785 0.105527 0.187211
1982 1 0.906466 0.0383735 0.0641978
1290 1 0.703726 0.0409029 0.119277
1073 1 0.436767 0.468189 0.0170186
1219 1 0.377504 0.63223 0.0291988
1176 1 0.551559 0.22908 0.0131906
1294 1 0.175256 0.896398 0.0156145
1800 1 0.855145 0.158595 0.0439475
414 1 0.728978 0.10196 0.0502113
416 1 0.0657847 0.270947 0.140261
1333 1 0.0626576 0.170647 0.0612478
441 1 0.786568 0.0315772 0.0575736
1026 1 0.523263 0.247775 0.307581
582 1 0.437123 0.142413 0.0321574
981 1 0.811998 0.159252 0.148527
1153 1 0.922184 0.1943 0.0855241
511 1 0.998663 0.158004 0.103248
1687 1 0.941432 0.803146 0.0349167
374 1 0.904428 0.33595 0.0615306
826 1 0.528045 0.296855 0.165981
445 1 0.714792 0.222565 0.10737
510 1 0.561732 0.954928 0.0250243
1148 1 0.284516 0.91359 0.0808348
407 1 0.411916 0.209765 0.0635629
347 1 0.77332 0.600589 0.0140398
436 1 0.96703 0.0369488 0.0179545
301 1 0.872217 0.55648 0.0275099
86 1 0.911393 0.271407 0.109664
1727 1 0.839482 0.0805946 0.0107841
1113 1 0.478405 0.225765 0.247331
329 1 0.529462 0.304824 0.0302185
1908 1 0.851335 0.30311 0.0130648
147 1 0.623642 0.299663 0.0530723
361 1 0.204611 0.432669 0.0471432
1172 1 0.832186 0.753623 0.138816
674 1 0.620162 0.995272 0.0553992
491 1 0.348761 0.332922 0.0649861
397 1 0.521498 0.737135 0.0840198
1527 1 0.114269 0.267786 0.310225
697 1 0.390669 0.989125 0.0226255
327 1 0.360904 0.360788 0.291719
1876 1 0.185613 0.117592 0.0186864
719 1 0.0451103 0.0479772 0.0033223
450 1 0.123126 0.485381 0.0470887
1165 1 0.306154 0.260282 0.0912142
1544 1 0.762388 0.265947 0.0653311
413 1 0.750298 0.82237 0.0419079
1231 1 0.530136 0.759311 0.236629
685 1 0.328786 0.557208 0.00753431
1583 1 0.482321 0.421893 0.0728333
1554 1 0.481383 0.834398 0.2483
1833 1 0.160978 0.884161 0.141717
1927 1 0.982729 0.506095 0.290267
446 1 0.404187 0.386162 0.0142972
633 1 0.563417 0.565223 0.318062
486 1 0.585775 0.329772 0.115926
683 1 0.710448 0.0030479 0.0477993
1235 1 0.0814334 0.604704 0.0826163
671 1 0.285271 0.00287826 0.330205
1007 1 0.440614 0.907381 0.279449
593 1 0.965282 0.526194 0.0219632
453 1 0.333736 0.502301 0.333183
1388 1 0.15962 0.0379546 0.0848005
788 1 0.923088 0.256578 0.0231857
1326 1 0.100456 0.950799 0.0259316
91 1 0.0358143 0.826504 0.236442
919 1 0.424991 0.853592 0.0089659
538 1 0.317593 0.835741 0.0788629
1261 1 0.827094 0.620635 0.0675071
843 1 0.898158 0.479909 0.031317
1185 1 0.319482 0.958268 0.0161957
1659 1 0.77958 0.951853 0.0367743
1030 1 0.815787 0.0226209 0.292423
1944 1 0.907223 0.634893 0.056627
616 1 0.690797 0.344318 0.0679898
612 1 0.411973 0.715554 0.156924
949 1 0.394161 0.858481 0.0952801
3 1 0.139496 0.3695 0.00368931
43 1 0.978063 0.746127 0.106595
549 1 0.78745 0.347026 0.0605585
197 1 0.793616 0.526337 0.0318949
1467 1 0.110655 0.869365 0.0829887
1964 1 0.178274 0.808922 0.118737
512 1 0.311393 0.0718956 0.105809
1075 1 0.23929 0.565101 0.0464048
1602 1 0.112729 0.131764 0.00888775
1128 1 0.657555 0.0556311 0.0171126
772 1 0.84206 0.769949 0.217023
290 1 0.549169 0.376729 0.050895
1877 1 0.252985 0.849903 0.147974
1669 1 0.201638 0.815013 0.000646719
2046 1 0.504711 0.164918 0.289784
742 1 0.877946 0.5449 0.270189
1629 1 0.411734 0.0392514 0.256502
160 1 0.393552 0.885656 0.207559
1275 1 0.612693 0.993781 0.318046
1329 1 0.258432 0.928495 0.152041
1784 1 0.623958 0.042407 0.121616
1916 1 0.263007 0.434505 0.259546
1729 1 0.440569 0.920672 0.0566112
699 1 0.670571 0.451245 0.0179905
64 1 0.624592 0.0828596 0.308975
1434 1 0.865155 0.810893 0.0321615
1066 1 0.325086 0.0376865 0.0260806
1513 1 0.287913 0.630457 0.0472095
611 1 0.516114 0.949032 0.0877764
1286 1 0.98318 0.985665 0.0868014
311 1 0.00875952 0.0865512 0.0644849
553 1 0.147387 0.15115 0.0861131
1258 1 0.649711 0.225159 0.0603054
792 1 0.449026 0.00925981 0.0675356
1919 1 0.197227 0.26319 0.0324609
1772 1 0.631672 0.14122 0.068247
756 1 0.962904 0.0885105 0.127256
839 1 0.21153 0.184325 0.209949
1364 1 0.254161 0.122269 0.161255
1021 1 0.396339 0.096533 0.117629
1511 1 0.654061 0.201271 0.170936
925 1 0.727015 0.200673 0.0300473
41 1 0.880772 0.105998 0.123096
654 1 0.933157 0.122772 0.0406599
928 1 0.195442 0.627548 0.0264062
1546 1 0.862625 0.217365 0.133051
1358 1 0.983386 0.198996 0.0386048
1861 1 0.0440754 0.251043 0.044159
56 1 0.979227 0.309369 0.0265738
112 1 0.349951 0.137989 0.312802
2042 1 0.203306 0.202068 0.126054
2048 1 0.59537 0.165737 0.00224225
370 1 0.785244 0.636867 0.323675
1223 1 0.564227 0.258804 0.0842836
1625 1 0.987619 0.248931 0.0984592
617 1 0.848585 0.870882 0.303421
801 1 0.229004 0.282379 0.101311
362 1 0.703209 0.263985 0.195602
664 1 0.750875 0.320249 0.13064
851 1 0.735075 0.328645 0.232186
317 1 0.779352 0.181713 0.0848886
1302 1 0.481916 0.0820629 0.0779987
1605 1 0.122057 0.288934 0.0297203
1425 1 0.13778 0.386424 0.078014
571 1 0.224049 0.440751 0.121071
394 1 0.432889 0.344807 0.0800584
71 1 0.500585 0.35333 0.116578
827 1 0.641305 0.482474 0.0916573
926 1 0.392622 0.707928 0.30041
1961 1 0.804391 0.330919 0.184312
784 1 0.990704 0.713939 0.247051
207 1 0.0893661 0.387599 0.143413
1880 1 0.34766 0.485034 0.159413
722 1 0.62631 0.390741 0.0507337
220 1 0.619218 0.587536 0.0312739
308 1 0.800221 0.436045 0.0391855
1400 1 0.128771 0.211378 0.018254
1349 1 0.267878 0.381016 0.0655904
223 1 0.930042 0.953462 0.0137637
517 1 0.6249 0.557217 0.122412
348 1 0.400254 0.409987 0.219617
1169 1 0.154968 0.549872 0.0165617
1882 1 0.354268 0.481334 0.00766619
920 1 0.429187 0.555813 0.0392267
1757 1 0.651694 0.63917 0.0787439
509 1 0.704202 0.482996 0.151681
736 1 0.0849665 0.734361 0.032294
330 1 0.269817 0.47368 0.0591562
1024 1 0.344786 0.517436 0.0787933
1905 1 0.783118 0.687906 0.119696
1675 1 0.784613 0.560733 0.108198
692 1 0.995648 0.595159 0.0427101
1563 1 0.0684399 0.411033 0.0178226
915 1 0.447666 0.366608 0.294879
440 1 0.188057 0.708844 0.10942
1666 1 0.480807 0.590006 0.100602
1274 1 0.469605 0.665374 0.122155
154 1 0.540561 0.743191 0.159862
1930 1 0.506705 0.622111 0.322897
191 1 0.00608504 0.74252 0.0368821
821 1 0.124839 0.810417 0.0339624
48 1 0.246382 0.924537 0.000387837
375 1 0.73964 0.00201198 0.289048
924 1 0.622705 0.77778 0.155237
482 1 0.11745 0.962253 0.111313
711 1 0.85395 0.721714 0.0706802
1854 1 0.396427 0.83497 0.266888
1435 1 0.486372 0.02181 0.222547
1006 1 0.713838 0.908265 0.0501843
1538 1 0.618098 0.621442 0.173417
1910 1 0.898164 0.773993 0.109664
587 1 0.672991 0.23553 0.307074
1427 1 0.335399 0.717886 0.161302
1273 1 0.317561 0.809687 0.15121
1528 1 0.477276 0.854125 0.0692721
1451 1 0.42003 0.70526 0.0767299
8 1 0.340341 0.789412 0.0169962
444 1 0.755246 0.757657 0.0924763
1740 1 0.823912 0.82166 0.101498
1259 1 0.956444 0.985995 0.306282
163 1 0.0228561 0.844929 0.157785
868 1 0.192955 0.949043 0.0773824
1496 1 0.285542 0.778504 0.21566
424 1 0.226339 0.85154 0.0736321
111 1 0.789275 0.905615 0.181876
1940 1 0.878625 0.87839 0.0859438
132 1 0.948757 0.887147 0.0493634
811 1 0.0187035 0.941178 0.158448
443 1 0.190511 0.986904 0.150029
929 1 0.315507 0.934597 0.216705
645 1 0.523913 0.889681 0.149141
1112 1 0.522612 0.0196575 0.0369942
1620 1 0.848447 0.984722 0.0530753
1069 1 0.0306561 0.04076 0.133662
1718 1 0.264893 0.988007 0.0708492
1028 1 0.276265 0.841621 0.007706
389 1 0.659773 0.00393635 0.17819
1534 1 0.752625 0.974688 0.130568
535 1 0.101723 0.602408 0.314856
1654 1 0.0354369 0.800834 0.316714
1363 1 0.548135 0.0171054 0.117399
1104 1 0.0205502 0.0221003 0.266381
1122 1 0.112605 0.12292 0.221526
2034 1 0.239995 0.0464942 0.144115
367 1 0.394091 0.077636 0.0395088
1315 1 0.556849 0.136845 0.174864
1818 1 0.695227 0.133211 0.121849
1762 1 0.813797 0.101667 0.0815934
227 1 0.965808 0.0799968 0.212496
688 1 0.0688753 0.129923 0.139304
1582 1 0.147305 0.25122 0.167986
307 1 0.156563 0.208451 0.279689
1292 1 0.298292 0.343029 0.00510058
360 1 0.335289 0.133667 0.145167
1713 1 0.48604 0.210295 0.0651401
1137 1 0.810679 0.230985 0.210966
60 1 0.918975 0.170654 0.16672
88 1 0.950072 0.240564 0.174122
725 1 0.130311 0.235146 0.0915936
1622 1 0.171957 0.278658 0.243407
777 1 0.136292 0.31059 0.112418
1647 1 0.359238 0.144165 0.0677928
1893 1 0.438334 0.218211 0.142313
622 1 0.477449 0.283186 0.101062
629 1 0.658111 0.296276 0.127491
762 1 0.781182 0.240147 0.139104
101 1 0.0976376 0.254131 0.230898
698 1 0.249307 0.24589 0.16096
931 1 0.409176 0.299594 0.141987
1636 1 0.61747 0.333727 0.198299
1222 1 0.78157 0.421302 0.112706
758 1 0.215861 0.340108 0.0160421
1230 1 0.288155 0.179291 0.0913136
1655 1 0.375472 0.326839 0.223085
1934 1 0.903298 0.221729 0.238868
108 1 0.936413 0.325785 0.205526
427 1 0.0431401 0.325335 0.0815991
621 1 0.0672364 0.386931 0.221343
897 1 0.303084 0.43217 0.118176
973 1 0.282076 0.341498 0.134422
993 1 0.514585 0.445346 0.144774
1296 1 0.431973 0.403659 0.140106
773 1 0.725165 0.393222 0.172306
1835 1 0.792025 0.426041 0.216959
1803 1 0.87031 0.279283 0.194006
286 1 0.13504 0.451816 0.122518
618 1 0.746186 0.484446 0.0756278
1995 1 0.830876 0.306157 0.107408
887 1 0.0142572 0.3927 0.103124
1378 1 0.0593769 0.464409 0.105067
492 1 0.149553 0.548476 0.243295
289 1 0.42958 0.473151 0.185402
1322 1 0.576074 0.619726 0.0931847
469 1 0.702582 0.420263 0.0896948
488 1 0.93425 0.423102 0.07686
99 1 0.104863 0.527317 0.117157
382 1 0.385238 0.552128 0.188141
761 1 0.489818 0.499552 0.287335
755 1 0.59434 0.405513 0.241296
830 1 0.7084 0.555249 0.0841346
1097 1 0.616677 0.239081 0.23195
2031 1 0.0152161 0.468533 0.0411123
1118 1 0.937948 0.562917 0.0909901
487 1 0.0546863 0.657097 0.0300216
1667 1 0.155671 0.592536 0.0854708
1561 1 0.562037 0.668784 0.148379
1478 1 0.63223 0.690881 0.142134
250 1 0.684384 0.619493 0.224372
689 1 0.801218 0.575447 0.277922
471 1 0.180383 0.681234 0.179645
1759 1 0.290756 0.687159 0.227084
481 1 0.221765 0.628972 0.111761
1209 1 0.588986 0.546869 0.199513
1796 1 0.941149 0.620184 0.140612
38 1 0.852612 0.636426 0.142823
1780 1 0.280314 0.762784 0.0782551
1250 1 0.521982 0.598697 0.168662
1603 1 0.732936 0.678936 0.180895
249 1 0.835992 0.620679 0.222463
570 1 0.897857 0.701875 0.151545
1242 1 0.0589795 0.767717 0.175644
20 1 0.12045 0.757244 0.0955162
1111 1 0.165827 0.73222 0.035823
996 1 0.325035 0.637375 0.162855
331 1 0.340941 0.667747 0.0901545
1594 1 0.450995 0.774328 0.108656
1071 1 0.710008 0.771679 0.15593
1124 1 0.850615 0.864146 0.161616
21 1 0.528489 0.664429 0.0489499
203 1 0.0498744 0.805264 0.087873
1374 1 0.27261 0.686777 0.129182
254 1 0.336818 0.893249 0.15025
1547 1 0.755566 0.868229 0.119168
1466 1 0.966606 0.00289029 0.167546
2019 1 0.0783856 0.870583 0.0116833
270 1 0.204202 0.925197 0.217808
832 1 0.179823 0.813811 0.198206
1986 1 0.555959 0.877413 0.0585212
1171 1 0.636652 0.877423 0.0643015
1644 1 0.807908 0.850354 0.23617
76 1 0.0624023 0.997629 0.202683
732 1 0.310758 0.993536 0.146535
1404 1 0.351049 0.883303 0.019581
1614 1 0.124572 0.152953 0.32494
1348 1 0.784921 0.811499 0.171775
779 1 0.842202 0.930192 0.241111
670 1 0.95803 0.914192 0.121577
1941 1 0.046697 0.0794384 0.206374
31 1 0.165502 0.117009 0.162017
1670 1 0.36348 0.0539532 0.176917
431 1 0.368636 0.0177093 0.102803
2008 1 0.505512 0.965345 0.167441
1001 1 0.669064 0.952896 0.0949058
1022 1 0.651798 0.0154638 0.255834
1100 1 0.751641 0.107813 0.17257
1281 1 0.0892204 0.903416 0.152951
883 1 0.373456 0.964791 0.167508
966 1 0.433054 0.921542 0.139154
596 1 0.440481 0.0906829 0.190391
1627 1 0.56788 0.0353149 0.269871
508 1 0.697418 0.0990117 0.263714
187 1 0.78252 0.0831279 0.254208
1102 1 0.0668468 0.176311 0.256151
649 1 0.121106 0.179704 0.162557
180 1 0.262395 0.069618 0.226897
309 1 0.470303 0.150893 0.11721
886 1 0.516478 0.0685151 0.161143
566 1 0.691665 0.176263 0.238844
127 1 0.594688 0.176996 0.127488
1246 1 0.864046 0.15782 0.220785
577 1 0.345838 0.111477 0.235962
1272 1 0.401362 0.163992 0.190796
1447 1 0.8097 0.290003 0.262976
82 1 0.2414 0.696956 0.0444468
1072 1 0.335667 0.412854 0.0450444
1421 1 0.205226 0.372449 0.233326
1353 1 0.305885 0.188632 0.200182
513 1 0.593293 0.258948 0.153992
780 1 0.743428 0.234229 0.25399
1304 1 0.00993349 0.268501 0.212933
93 1 0.0208416 0.339045 0.172837
539 1 0.335635 0.287668 0.171307
795 1 0.460102 0.289966 0.205258
1649 1 0.539793 0.277272 0.238117
770 1 0.551802 0.19859 0.228506
204 1 0.793109 0.365983 0.269621
1741 1 0.990381 0.396994 0.238915
185 1 0.203497 0.359066 0.112983
1952 1 0.184676 0.456373 0.219697
1120 1 0.254152 0.402747 0.181468
226 1 0.543349 0.367391 0.193116
1610 1 0.830193 0.199261 0.284322
1942 1 0.118486 0.325484 0.19112
1849 1 0.101085 0.463073 0.192364
83 1 0.35694 0.368804 0.142489
751 1 0.58484 0.4092 0.135862
85 1 0.857193 0.349704 0.306466
1686 1 0.909406 0.426229 0.2452
1568 1 0.949779 0.396717 0.150549
148 1 0.16111 0.514152 0.170446
1533 1 0.392015 0.44681 0.092172
1921 1 0.63641 0.351858 0.317493
1491 1 0.873363 0.356161 0.232518
433 1 0.985109 0.478753 0.111035
1382 1 0.375714 0.492948 0.245436
1343 1 0.557601 0.449059 0.0775297
842 1 0.659231 0.373868 0.137333
470 1 0.79221 0.483415 0.160638
229 1 0.916654 0.476182 0.146934
1895 1 0.890405 0.347228 0.141817
121 1 0.0818161 0.593941 0.179586
656 1 0.187365 0.50181 0.0874843
1395 1 0.365391 0.56696 0.275932
1214 1 0.572392 0.476053 0.277122
1268 1 0.746419 0.548564 0.180231
865 1 0.854843 0.405526 0.0817185
653 1 0.0529818 0.541536 0.0300936
183 1 0.105592 0.661446 0.143577
1183 1 0.29279 0.596847 0.240541
1159 1 0.305825 0.584963 0.106323
1110 1 0.390213 0.597451 0.106891
1830 1 0.415248 0.519092 0.119227
87 1 0.988845 0.397761 0.0193327
1060 1 0.860762 0.559809 0.104023
1662 1 0.837278 0.486578 0.0982067
325 1 0.0261887 0.634862 0.14685
1681 1 0.504988 0.482893 0.21496
1303 1 0.623656 0.577598 0.262315
1638 1 0.682116 0.810675 0.254456
116 1 0.855185 0.695012 0.269953
1576 1 0.0564649 0.71911 0.11283
847 1 0.233687 0.763096 0.150532
1288 1 0.404185 0.631344 0.17335
10 1 0.587355 0.783114 0.0864371
1601 1 0.926012 0.838553 0.16216
786 1 0.823353 0.697267 0.193163
837 1 0.970575 0.690371 0.163428
1697 1 0.130718 0.740746 0.176557
1517 1 0.267601 0.733114 0.28677
796 1 0.470149 0.776782 0.187809
1581 1 0.467526 0.546953 0.169735
859 1 0.593532 0.707888 0.208014
356 1 0.756447 0.812622 0.286132
377 1 0.724734 0.380476 0.00316989
1822 1 0.973112 0.823102 0.104204
776 1 0.139454 0.882222 0.219441
1702 1 0.171034 0.913416 0.313541
462 1 0.391254 0.801906 0.167666
316 1 0.357539 0.762715 0.0925713
1379 1 0.672533 0.715449 0.223424
358 1 0.717165 0.853659 0.191908
1143 1 0.842923 0.766253 0.298952
986 1 0.90601 0.91173 0.199838
1846 1 0.245067 0.885566 0.310376
778 1 0.326048 0.850113 0.225485
421 1 0.529296 0.8036 0.0397358
1445 1 0.841157 0.965864 0.158751
190 1 0.108198 0.825538 0.149139
838 1 0.17037 0.99736 0.281777
1577 1 0.362917 0.935864 0.0788803
896 1 0.482424 0.905806 0.211828
181 1 0.668998 0.903291 0.239907
844 1 0.750942 0.898745 0.269607
265 1 0.789129 0.00588322 0.215404
1310 1 0.908419 0.97692 0.116281
1146 1 0.190003 0.0505162 0.206711
1321 1 0.430661 0.965395 0.227511
335 1 0.588211 0.982265 0.206003
529 1 0.828965 0.0366404 0.124472
1105 1 0.897787 0.0367039 0.163582
1510 1 0.95962 0.0681094 0.288649
803 1 0.154102 0.075995 0.305173
33 1 0.454452 0.636344 0.0492437
412 1 0.527437 0.103703 0.244461
298 1 0.927882 0.715535 0.0557947
53 1 0.87916 0.965709 0.304917
1019 1 0.49119 0.695823 0.276467
1403 1 0.829084 0.0912116 0.180273
193 1 0.200763 0.112854 0.25307
162 1 0.251226 0.993179 0.199586
245 1 0.326751 0.0112928 0.232759
630 1 0.430079 0.126501 0.288235
1335 1 0.483954 0.161492 0.20317
1132 1 0.822715 0.121047 0.31172
1457 1 0.0763415 0.0214492 0.318285
89 1 0.279534 0.147771 0.273298
1446 1 0.437674 0.0156215 0.149485
677 1 0.606541 0.145856 0.241334
1032 1 0.369086 0.27763 0.296826
1270 1 0.00192996 0.14432 0.197155
1320 1 0.122326 0.482295 0.282386
1967 1 0.359582 0.209331 0.135075
1760 1 0.519721 0.209824 0.155629
57 1 0.735432 0.189582 0.175251
1606 1 0.917958 0.196589 0.321267
1002 1 0.0157247 0.327769 0.27058
1766 1 0.0953405 0.326953 0.264278
900 1 0.286647 0.358487 0.278048
1123 1 0.230254 0.30233 0.307885
1285 1 0.236213 0.230405 0.271667
1465 1 0.313078 0.259229 0.244437
1962 1 0.716493 0.370605 0.310512
647 1 0.700788 0.738404 0.291566
1562 1 0.255252 0.309128 0.226362
75 1 0.362189 0.196157 0.260323
846 1 0.442632 0.29053 0.281937
1709 1 0.652947 0.433051 0.187814
1755 1 0.66813 0.383329 0.245299
1332 1 0.129025 0.0218076 0.0043554
507 1 0.039889 0.465124 0.253887
1637 1 0.197066 0.309891 0.171152
544 1 0.321898 0.391841 0.215764
1819 1 0.46621 0.369147 0.200978
1728 1 0.847529 0.240204 0.0566202
1011 1 0.951451 0.277054 0.273864
1476 1 0.911012 0.555735 0.17369
353 1 0.0178697 0.434628 0.17519
283 1 0.257038 0.485055 0.176991
977 1 0.644322 0.443365 0.30402
1094 1 0.853079 0.427725 0.164112
584 1 0.939092 0.352568 0.285367
39 1 0.857801 0.485223 0.220311
1461 1 0.0660505 0.545917 0.254565
1869 1 0.360632 0.645526 0.256419
1621 1 0.344691 0.439346 0.283101
558 1 0.577252 0.467444 0.197024
665 1 0.686831 0.6023 0.140422
1025 1 0.134554 0.665373 0.070711
1125 1 0.965768 0.325503 0.10559
819 1 0.0169943 0.549753 0.10262
1661 1 0.545741 0.520008 0.142206
1656 1 0.67231 0.541736 0.19713
2001 1 0.776504 0.616872 0.162021
876 1 0.992025 0.669606 0.0826882
1338 1 0.299704 0.555508 0.177196
1935 1 0.249705 0.636854 0.18524
1008 1 0.480361 0.618407 0.238531
991 1 0.42999 0.279608 0.0326148
1014 1 0.721432 0.565386 0.266486
785 1 0.866924 0.62143 0.303533
378 1 0.0589965 0.689569 0.206109
1832 1 0.171552 0.601034 0.176794
1101 1 0.4425 0.554967 0.251427
476 1 0.207508 0.743428 0.228442
1289 1 0.315456 0.67547 0.31836
1045 1 0.586582 0.0902302 0.0275166
1509 1 0.427928 0.687625 0.229864
1540 1 0.758842 0.751548 0.213711
546 1 0.2076 0.660772 0.250626
1593 1 0.518852 0.812831 0.119846
2029 1 0.676845 0.835053 0.123678
1 1 0.630157 0.660461 0.265205
1317 1 0.0603634 0.904469 0.224321
1558 1 0.246629 0.858084 0.231895
319 1 0.457033 0.849997 0.155054
578 1 0.637957 0.790995 0.315565
279 1 0.916724 0.725545 0.308029
1401 1 0.888235 0.843723 0.236356
714 1 0.981323 0.78265 0.19679
1596 1 0.923016 0.908016 0.27758
1590 1 0.139207 0.97277 0.204111
40 1 0.324707 0.711456 0.0180006
272 1 0.232518 0.0423624 0.0205823
1488 1 0.593819 0.855987 0.123448
636 1 0.964377 0.790545 0.274382
1597 1 0.113755 0.638595 0.232397
595 1 0.113966 0.0494441 0.24349
1632 1 0.319593 0.891733 0.297894
1336 1 0.607726 0.846067 0.271364
672 1 0.0397713 0.23641 0.296405
1812 1 0.99218 0.944454 0.250575
1751 1 0.110582 0.044391 0.151532
1295 1 0.262409 0.953677 0.264853
968 1 0.491739 0.0704608 0.308772
110 1 0.586251 0.068767 0.197406
490 1 0.722428 0.9574 0.211203
613 1 0.0771991 0.0960212 0.293172
1200 1 0.767108 0.645535 0.249586
741 1 0.329574 0.0583008 0.295316
212 1 0.0602582 0.00593598 0.0687657
158 1 0.0074802 0.129813 0.279978
1900 1 0.016137 0.611309 0.234149
990 1 0.737166 0.63121 0.0820727
760 1 0.25442 0.0795116 0.311864
303 1 0.80422 0.933741 0.317547
954 1 0.748058 0.178704 0.31038
737 1 0.356935 0.754715 0.250229
561 1 0.93324 0.143568 0.248998
430 1 0.0490689 0.210148 0.17859
1506 1 0.202479 0.141616 0.332763
100 1 0.809361 0.871197 0.0217834
24 1 0.888738 0.0739014 0.247901
1204 1 0.39337 0.242284 0.199126
1048 1 0.47386 0.73319 0.0168087
1050 1 0.684358 0.625814 0.00836134
913 1 0.0496312 0.65321 0.28901
1570 1 0.220037 0.181868 0.0402245
1699 1 0.16303 0.392811 0.170156
1483 1 0.758986 0.442659 0.29376
489 1 0.112553 0.945824 0.27528
979 1 0.593471 0.290732 0.293191
1158 1 0.0114039 0.940815 0.0293055
1763 1 0.700082 0.70352 0.0747065
1181 1 0.134341 0.402447 0.276298
109 1 0.664079 0.154461 0.315784
1233 1 0.728769 0.292199 0.305287
357 1 0.749374 0.0945539 0.324535
1959 1 0.214047 0.583579 0.282612
864 1 0.0568833 0.398209 0.297028
1817 1 0.719468 0.0452856 0.209471
1173 1 0.591701 0.932335 0.100203
506 1 0.156321 0.333318 0.315991
1470 1 0.0258657 0.877358 0.0798394
369 1 0.211792 0.396465 0.320259
54 1 0.0931649 0.0881303 0.0689846
1168 1 0.586961 0.900924 0.195506
7 1 0.777445 0.156489 0.23873
1635 1 0.528556 0.339002 0.284402
239 1 0.714444 0.465541 0.23337
1080 1 0.519585 0.960945 0.256099
1053 1 0.148777 0.759265 0.313975
807 1 0.810883 0.919215 0.102116
1801 1 0.18684 0.83355 0.280574
368 1 0.250058 0.537717 0.121484
326 1 0.681382 0.950641 0.303994
693 1 0.506209 0.41048 0.258176
858 1 0.601018 0.927392 0.268084
1271 1 0.526471 0.585314 0.0301111
880 1 0.999424 0.550213 0.178882
1187 1 0.967058 0.485387 0.212973
724 1 0.704276 0.638165 0.298776
1573 1 0.900983 0.112069 0.317136
978 1 0.782935 0.502684 0.242958
222 1 0.815752 0.490705 0.321161
69 1 0.217495 0.508545 0.280572
1371 1 0.291952 0.511496 0.243681
661 1 0.430353 0.531684 0.334237
1933 1 0.702279 0.495477 0.305548
1592 1 0.829114 0.550269 0.186798
448 1 0.14419 0.704816 0.254096
1482 1 0.225253 0.548616 0.208621
1672 1 0.33693 0.225599 0.0314489
1410 1 0.643695 0.497237 0.253548
620 1 0.913597 0.739601 0.227557
1678 1 0.49558 0.501099 0.0809222
1843 1 0.284808 0.604966 0.322034
1047 1 0.584559 0.192301 0.306337
122 1 0.433173 0.986555 0.305644
1229 1 0.431521 0.637861 0.298045
1236 1 0.0193845 0.882598 0.29411
1725 1 0.577072 0.71943 0.295785
563 1 0.841367 0.428993 0.282716
775 1 0.0136965 0.576197 0.311042
458 1 0.776894 0.715213 0.291982
55 1 0.920176 0.638919 0.217585
1502 1 0.0688484 0.734983 0.271736
1902 1 0.874246 0.266588 0.310934
1556 1 0.529192 0.559309 0.248127
261 1 0.500763 0.68453 0.197033
1390 1 0.641078 0.842972 0.195638
2028 1 0.559526 0.64381 0.235528
1550 1 0.966203 0.868431 0.223472
895 1 0.437743 0.198666 0.327491
398 1 0.950478 0.57211 0.248085
1184 1 0.303056 0.803268 0.30069
1691 1 0.446647 0.767261 0.259447
1189 1 0.978051 0.205339 0.256863
1791 1 0.558379 0.822566 0.194257
1228 1 0.114564 0.799023 0.241446
1891 1 0.367164 0.956743 0.274389
1064 1 0.611124 0.778335 0.237626
1413 1 0.43053 0.445783 0.292467
1852 1 0.539184 0.881649 0.261353
269 1 0.921613 0.995446 0.234463
5 1 0.545072 0.119466 0.101166
650 1 0.555356 0.796966 0.305532
1575 1 0.664612 0.911579 0.159671
1907 1 0.945924 0.629358 0.297638
1793 1 0.217134 0.116258 0.0932793
1293 1 0.519569 0.150966 0.0232505
1857 1 0.596465 0.696783 0.0746863
1613 1 0.299491 0.233398 0.328363
1844 1 0.101654 0.868615 0.304453
1749 1 0.478117 0.848974 0.327958
1889 1 0.992373 0.686547 0.321966
346 1 0.21366 0.683541 0.330151
1215 1 0.897122 0.486162 0.321174
569 1 0.29179 0.108243 0.0402966
1085 1 0.964922 0.428898 0.325906
1175 1 0.702721 0.549397 0.00582026
1092 1 0.669852 0.572253 0.326944
1003 1 0.478546 0.358327 0.00663192
1225 1 0.606985 0.818481 0.0120865
318 1 0.903654 0.806121 0.323439
2012 1 0.0530512 0.337993 0.000562813
1985 1 0.973033 0.676238 0.00327379
994 1 0.652016 0.727723 0.00438096
1811 1 0.0874024 0.0761258 0.379058
952 1 0.473465 0.465686 0.360717
802 1 0.073347 0.504733 0.644728
170 1 0.715368 0.111823 0.473062
178 1 0.276972 0.151375 0.357262
1088 1 0.919653 0.183841 0.404802
733 1 0.519163 0.269166 0.402369
305 1 0.101053 0.14136 0.427782
729 1 0.325619 0.0812313 0.364775
1058 1 0.723152 0.189306 0.437768
866 1 0.701307 0.0677774 0.539189
2002 1 0.469897 0.14697 0.491036
871 1 0.547945 0.496547 0.630679
42 1 0.656046 0.208373 0.403026
1771 1 0.890386 0.83148 0.402984
1752 1 0.810982 0.0515562 0.367767
1012 1 0.79329 0.842568 0.353121
1178 1 0.95782 0.251689 0.429986
1739 1 0.364313 0.995665 0.359307
1971 1 0.280558 0.182169 0.483861
1144 1 0.871358 0.904374 0.371364
455 1 0.581525 0.160392 0.46974
1297 1 0.412445 0.546236 0.606841
349 1 0.882793 0.255653 0.470339
1254 1 0.406045 0.877618 0.535835
1477 1 0.488481 0.326453 0.352638
1639 1 0.0701428 0.0595329 0.473498
1761 1 0.503543 0.749598 0.343781
1103 1 0.760204 0.390392 0.430602
1460 1 0.747191 0.0632777 0.421063
151 1 0.905366 0.329695 0.372211
1579 1 0.0460111 0.142239 0.351065
932 1 0.11065 0.135171 0.645628
823 1 0.506377 0.21545 0.482533
1990 1 0.737065 0.320595 0.386204
1339 1 0.75774 0.988721 0.364974
312 1 0.050012 0.466258 0.334964
1717 1 0.100746 0.965129 0.649428
574 1 0.0322273 0.391922 0.389528
1574 1 0.472952 0.316463 0.436605
275 1 0.592388 0.250187 0.363513
1842 1 0.798299 0.252442 0.337278
961 1 0.61859 0.0431811 0.387731
542 1 0.924971 0.529885 0.465704
1121 1 0.217634 0.316875 0.622339
1059 1 0.300905 0.309533 0.337692
1108 1 0.734875 0.912838 0.348606
1454 1 0.0686957 0.323403 0.341397
1526 1 0.890983 0.41122 0.347819
1157 1 0.971374 0.494404 0.374345
1949 1 0.164308 0.598829 0.445397
182 1 0.129259 0.537582 0.343536
1016 1 0.376533 0.767498 0.403876
609 1 0.63629 0.48165 0.409802
909 1 0.443799 0.266183 0.365927
381 1 0.538359 0.0231069 0.349407
1126 1 0.16406 0.104349 0.387671
545 1 0.0501351 0.949631 0.338118
380 1 0.168005 0.614481 0.356382
1237 1 0.83315 0.775287 0.378188
320 1 0.530028 0.405622 0.333833
707 1 0.990376 0.588266 0.386915
562 1 0.907827 0.459234 0.417703
675 1 0.613436 0.136252 0.381458
1240 1 0.0912093 0.58935 0.395044
1351 1 0.365717 0.685361 0.378027
879 1 0.533121 0.615992 0.394881
1279 1 0.057499 0.874728 0.37298
1777 1 0.743358 0.771223 0.351863
27 1 0.356683 0.146309 0.650206
1700 1 0.0694154 0.213747 0.362523
1455 1 0.769938 0.384828 0.510034
2047 1 0.666615 0.754893 0.466062
556 1 0.618232 0.667891 0.424598
817 1 0.851476 0.668041 0.429538
1567 1 0.0560888 0.148481 0.588189
1710 1 0.668243 0.288764 0.362245
892 1 0.229248 0.155939 0.428329
1150 1 0.149909 0.728378 0.471625
2045 1 0.111328 0.664746 0.421775
1196 1 0.173134 0.853902 0.548245
1640 1 0.445384 0.689284 0.363413
992 1 0.904328 0.96411 0.61007
1484 1 0.785889 0.526654 0.41428
1966 1 0.61469 0.835393 0.380718
1450 1 0.16908 0.732744 0.392626
1109 1 0.222083 0.770985 0.352754
787 1 0.826248 0.309586 0.383849
873 1 0.872942 0.246357 0.393792
1180 1 0.798729 0.9209 0.395797
452 1 0.862671 0.679419 0.355247
1792 1 0.691263 0.327684 0.597011
68 1 0.334976 0.746926 0.344183
1308 1 0.857011 0.0228431 0.593678
540 1 0.520789 0.328371 0.615504
1327 1 0.630492 0.508786 0.644562
15 1 0.37848 0.472383 0.623695
241 1 0.725589 0.820277 0.432201
863 1 0.157032 0.189703 0.404805
1892 1 0.00966399 0.731075 0.419059
1716 1 0.937599 0.351178 0.648344
81 1 0.469886 0.191797 0.416666
1960 1 0.844722 0.979693 0.372998
1707 1 0.918632 0.55526 0.347348
1013 1 0.673707 0.500593 0.556579
963 1 0.800661 0.810955 0.437158
1365 1 0.0344433 0.807951 0.40704
137 1 0.390536 0.964077 0.504923
1243 1 0.911652 0.636765 0.639784
1994 1 0.541994 0.124083 0.341459
1813 1 0.940285 0.0501897 0.397852
1838 1 0.842511 0.894341 0.452553
608 1 0.97924 0.835702 0.359097
343 1 0.926356 0.978142 0.379463
1874 1 0.881285 0.0361329 0.335862
1535 1 0.28334 0.967555 0.404523
156 1 0.254769 0.84436 0.454881
1856 1 0.36492 0.604769 0.343716
1595 1 0.999976 0.0170727 0.444623
30 1 0.014525 0.0930021 0.416642
1932 1 0.0249643 0.429261 0.624731
211 1 0.00492711 0.0321568 0.349825
296 1 0.783279 0.982439 0.635951
1804 1 0.658477 0.961532 0.382096
713 1 0.700782 0.940015 0.500118
1399 1 0.853296 0.0480755 0.435649
1340 1 0.402437 0.330379 0.354768
248 1 0.00401111 0.172917 0.431554
240 1 0.123653 0.120416 0.499363
281 1 0.291949 0.412228 0.339515
206 1 0.338843 0.118167 0.509696
518 1 0.944079 0.261483 0.349787
875 1 0.735352 0.97582 0.56492
1023 1 0.772932 0.160018 0.493695
1213 1 0.25847 0.100057 0.482307
1174 1 0.4664 0.0389039 0.378946
1924 1 0.695231 0.120014 0.391033
1733 1 0.728182 0.241313 0.370985
451 1 0.796984 0.24349 0.434905
2041 1 0.264745 0.131843 0.548901
1462 1 0.467566 0.0135961 0.472181
1253 1 0.735894 0.397251 0.59886
1360 1 0.814813 0.328709 0.468006
1516 1 0.84038 0.183318 0.459669
1224 1 0.136167 0.327682 0.398832
1366 1 0.304676 0.206821 0.408406
890 1 0.553455 0.176177 0.538038
345 1 0.549548 0.0900107 0.519137
902 1 0.801805 0.240207 0.522731
44 1 0.913748 0.186294 0.48497
575 1 0.10377 0.390405 0.357222
153 1 0.177982 0.399509 0.414064
1406 1 0.260705 0.40884 0.423823
1881 1 0.346244 0.249699 0.457621
1142 1 0.424447 0.248963 0.446926
988 1 0.460343 0.212197 0.548644
1989 1 0.578971 0.230816 0.437826
1783 1 0.666274 0.256863 0.469918
25 1 0.746177 0.466653 0.559252
428 1 0.999256 0.441436 0.443974
266 1 0.16877 0.0766741 0.655082
63 1 0.546199 0.364398 0.432158
1703 1 0.600167 0.304795 0.431004
295 1 0.952308 0.39652 0.403396
232 1 0.266155 0.482648 0.427286
659 1 0.228564 0.582606 0.400896
885 1 0.607662 0.747875 0.41569
1996 1 0.689346 0.348343 0.492927
985 1 0.896861 0.335166 0.477496
297 1 0.0666811 0.423397 0.561607
1658 1 0.0428097 0.511387 0.397535
1133 1 0.0959776 0.566969 0.597769
1248 1 0.180499 0.528292 0.507202
643 1 0.303111 0.547149 0.405904
2004 1 0.898602 0.971608 0.529745
1500 1 0.596966 0.412998 0.370297
196 1 0.756955 0.460696 0.371111
1127 1 0.189301 0.508888 0.412555
532 1 0.351752 0.168985 0.575004
1337 1 0.608967 0.787429 0.650507
411 1 0.77192 0.460462 0.469023
2025 1 0.932031 0.613016 0.452106
1195 1 0.148442 0.580801 0.651842
749 1 0.262991 0.710572 0.383202
1704 1 0.321741 0.58709 0.477223
1786 1 0.824298 0.573546 0.359528
680 1 0.9617 0.759702 0.362721
58 1 0.954064 0.65826 0.383589
833 1 0.0788615 0.542655 0.457629
1512 1 0.272363 0.655775 0.481088
475 1 0.0604813 0.00234097 0.394531
534 1 0.198862 0.028412 0.356194
2015 1 0.578926 0.552349 0.39708
1688 1 0.707666 0.670249 0.445368
1903 1 0.0879015 0.754186 0.430114
208 1 0.408898 0.719759 0.47756
165 1 0.697825 0.0411475 0.351433
72 1 0.547181 0.827728 0.500592
1311 1 0.792775 0.710643 0.389156
764 1 0.735702 0.740402 0.433837
461 1 0.88811 0.612042 0.387203
1690 1 0.10995 0.667189 0.519009
2043 1 0.231435 0.735879 0.45796
678 1 0.339587 0.834837 0.441873