ITEM: TIMESTEP
100000
ITEM: NUMBER OF ATOMS
2048
ITEM: BOX BOUNDS pp pp pp
0.0000000000000000e+00 1.1351867295763070e+01
0.0000000000000000e+00 1.1351867295763070e+01
0.0000000000000000e+00 1.1351867295763070e+01
ITEM: ATOMS id type xs ys zs
7 1 0.185128 -0.00143216 0.0627654
11 1 0.310487 0.999596 0.0578869
15 1 0.434633 -0.00114799 0.060304
19 1 0.557795 0.998441 0.0615362
23 1 0.685562 -0.000373188 0.0598282
28 1 0.74782 0.0666417 0.0640677
32 1 0.877493 0.0634726 0.0691918
31 1 0.938406 0.99379 0.0594304
4 1 0.0003843 0.0619282 0.0682513
8 1 0.125 0.0577955 0.0621222
12 1 0.246464 0.062019 0.0608876
16 1 0.374482 0.0620798 0.0621885
20 1 0.494046 0.0624507 0.0610386
118 1 0.681176 0.433737 0.000651461
24 1 0.62424 0.0601374 0.0576711
35 1 0.0618806 0.121381 0.0600263
117 1 0.62548 0.375411 0.00115296
39 1 0.190775 0.123856 0.0717466
740 1 1.00138 0.945382 0.307346
43 1 0.316709 0.119338 0.0622714
539 1 0.809953 0.995847 0.312562
47 1 0.438331 0.126286 0.063337
122 1 0.807533 0.437056 0.000989295
51 1 0.563839 0.120831 0.0607121
55 1 0.685571 0.121175 0.0609302
59 1 0.815177 0.119117 0.0646466
63 1 0.935907 0.127173 0.0600228
36 1 -0.00311785 0.190435 0.0615482
40 1 0.132559 0.188082 0.0690045
48 1 0.368632 0.18412 0.0626379
52 1 0.497922 0.187271 0.0613021
101 1 0.124565 0.372598 0.00287679
56 1 0.625307 0.18383 0.0643099
22 1 0.687235 0.0576948 -0.00112509
149 1 0.625433 0.498887 0.00158523
64 1 0.866791 0.185625 0.0639558
241 1 0.501996 0.877228 -0.000438636
67 1 0.062109 0.2474 0.0666414
197 1 0.127376 0.749297 0.00409109
75 1 0.316565 0.251462 0.0610713
79 1 0.433061 0.248066 0.0626808
114 1 0.567192 0.438273 0.00432732
229 1 0.125248 0.874778 0.00140143
87 1 0.685995 0.251777 0.0643202
54 1 0.689962 0.18384 -0.000824432
91 1 0.812752 0.255134 0.062748
93 1 0.871911 0.254097 0.0045841
95 1 0.934918 0.248335 0.0674388
535 1 0.688485 0.998737 0.318092
65 1 0.996684 0.251297 0.00235157
72 1 0.125061 0.311081 0.068349
34 1 0.0571736 0.186253 0.0044903
76 1 0.251742 0.313861 0.065497
80 1 0.375692 0.316021 0.0605892
84 1 0.504713 0.317965 0.0578198
126 1 0.933901 0.436961 0.00262875
88 1 0.621096 0.308318 0.0652996
217 1 0.751087 0.748553 -0.000416397
92 1 0.748534 0.315989 0.0613404
121 1 0.747912 0.381046 -0.00123696
96 1 0.873924 0.311956 0.0661492
68 1 0.000188127 0.308388 0.060473
99 1 0.0684272 0.376884 0.0622548
103 1 0.183759 0.368562 0.0629816
531 1 0.563892 0.995079 0.31394
107 1 0.320773 0.379148 0.0643352
111 1 0.438519 0.37756 0.0600187
527 1 0.437855 1.00129 0.307448
115 1 0.568243 0.376631 0.066347
105 1 0.248306 0.374871 0.0058554
119 1 0.688853 0.376231 0.0686901
127 1 0.934794 0.371488 0.0659852
100 1 0.997642 0.433976 0.0630072
104 1 0.129568 0.437547 0.0618245
108 1 0.253206 0.442622 0.0647865
112 1 0.379463 0.447054 0.0591173
116 1 0.500437 0.439052 0.0571706
70 1 0.186421 0.309217 0.000397297
120 1 0.630223 0.437069 0.0668513
124 1 0.753959 0.433427 0.0665275
128 1 0.870563 0.440899 0.0632801
233 1 0.249634 0.876769 -0.000814498
133 1 0.12385 0.497858 0.000427359
131 1 0.0623207 0.494551 0.0574464
74 1 0.308193 0.316205 0.00540628
135 1 0.187675 0.502567 0.0664561
728 1 0.625147 0.810865 0.308796
139 1 0.316545 0.499515 0.0686604
143 1 0.438144 0.507892 0.0616193
147 1 0.55985 0.498772 0.0621342
6 1 0.19229 0.0640693 0.00224761
155 1 0.809988 0.503294 0.0603761
134 1 0.190771 0.564416 0.00347451
159 1 0.932625 0.501481 0.0584923
132 1 1.00006 0.560748 0.0573636
140 1 0.252788 0.561963 0.0668404
144 1 0.37478 0.566439 0.0576775
724 1 0.503659 0.809336 0.304443
148 1 0.502521 0.564478 0.058064
523 1 0.308268 0.994747 0.313134
152 1 0.626251 0.562024 0.0639402
1 1 0.00295593 0.00589239 0.000101062
156 1 0.750698 0.560756 0.0631875
160 1 0.871871 0.562766 0.0607882
81 1 0.493249 0.252942 0.00301677
69 1 0.123893 0.249616 0.0043691
163 1 0.0660347 0.620124 0.0597315
167 1 0.186444 0.6322 0.0616665
715 1 0.305586 0.743811 0.320063
171 1 0.308594 0.623981 0.0600206
720 1 0.36748 0.80803 0.312282
175 1 0.43485 0.625842 0.0612844
179 1 0.562352 0.621786 0.0561532
748 1 0.248098 0.938912 0.322505
183 1 0.688542 0.623568 0.0620914
768 1 0.877858 0.937766 0.316232
187 1 0.811864 0.620834 0.063132
764 1 0.755497 0.936186 0.319354
191 1 0.939761 0.6301 0.0629392
164 1 0.00312724 0.689145 0.0665812
760 1 0.628153 0.938228 0.309681
168 1 0.122174 0.688337 0.0655364
756 1 0.499196 0.938801 0.311485
172 1 0.252505 0.689666 0.0586396
711 1 0.179812 0.755187 0.304135
176 1 0.371021 0.689094 0.0615777
180 1 0.495097 0.684081 0.0582693
184 1 0.624547 0.684664 0.0585172
188 1 0.749666 0.687627 0.0620614
192 1 0.878625 0.690091 0.0641795
752 1 0.37328 0.934941 0.313516
716 1 0.246371 0.812941 0.313909
195 1 0.0637672 0.746237 0.0641924
744 1 0.125655 0.935704 0.309896
712 1 0.127461 0.822374 0.309896
203 1 0.310557 0.750453 0.0529512
700 1 0.754337 0.685707 0.314319
767 1 0.942325 0.878995 0.310592
696 1 0.629069 0.686177 0.318353
215 1 0.690332 0.748736 0.063591
707 1 0.0655693 0.751836 0.307397
219 1 0.81306 0.750276 0.0617698
747 1 0.312889 0.874323 0.313907
223 1 0.935307 0.751376 0.0614244
196 1 0.00598824 0.819447 0.0654705
200 1 0.12181 0.813459 0.064332
735 1 0.938251 0.754568 0.308845
743 1 0.189388 0.875927 0.306224
208 1 0.37326 0.813691 0.0529407
212 1 0.500652 0.814605 0.057222
216 1 0.621172 0.813347 0.0601336
220 1 0.745989 0.810639 0.0584305
227 1 0.0719097 0.882762 0.0619194
739 1 0.0638047 0.875598 0.31276
231 1 0.185316 0.875171 0.0610167
763 1 0.816376 0.878552 0.309097
235 1 0.306983 0.878416 0.0631953
239 1 0.436751 0.877465 0.0643587
759 1 0.687414 0.876706 0.309094
243 1 0.561287 0.874015 0.0645399
247 1 0.687405 0.874781 0.0587957
704 1 0.873171 0.687456 0.313681
708 1 0.00232704 0.813346 0.311162
255 1 0.938844 0.878051 0.0663741
731 1 0.813191 0.75339 0.310775
736 1 0.877332 0.817047 0.308466
232 1 0.127441 0.938578 0.0566104
727 1 0.690438 0.749448 0.314989
236 1 0.251378 0.937457 0.0585292
240 1 0.376086 0.940293 0.0521693
244 1 0.496823 0.937239 0.0649135
248 1 0.626427 0.937906 0.0616912
755 1 0.567463 0.874869 0.307661
252 1 0.743049 0.937757 0.0563045
732 1 0.753048 0.82 0.309303
723 1 0.566449 0.748621 0.307779
719 1 0.435102 0.754319 0.304733
692 1 0.495691 0.694564 0.308879
751 1 0.441688 0.874211 0.310181
27 1 0.815595 -0.00149475 0.0595856
3 1 0.0646424 0.996494 0.0639597
265 1 0.253502 0.997464 0.12097
266 1 0.312647 0.0608157 0.120154
269 1 0.373098 0.998232 0.120058
273 1 0.495988 0.00230786 0.122328
277 1 0.621518 0.998776 0.12388
281 1 0.745051 0.00243817 0.126135
257 1 0.00124303 0.997774 0.126624
258 1 0.062315 0.0612961 0.125662
262 1 0.183349 0.0574404 0.123564
270 1 0.435259 0.0652999 0.12366
274 1 0.563756 0.0558667 0.125415
278 1 0.681706 0.0626668 0.120818
282 1 0.807576 0.0614822 0.132334
286 1 0.937372 0.0594439 0.124262
293 1 0.123212 0.120814 0.12201
297 1 0.249571 0.124404 0.129581
301 1 0.375419 0.122389 0.123424
305 1 0.497109 0.125353 0.12284
309 1 0.621264 0.124367 0.127284
313 1 0.746697 0.125628 0.125882
317 1 0.871103 0.123075 0.130382
289 1 0.995469 0.127442 0.129605
290 1 0.0672125 0.186715 0.131376
294 1 0.186901 0.19025 0.130468
44 1 0.250481 0.186709 0.066057
298 1 0.308817 0.185755 0.129794
302 1 0.439856 0.188432 0.127769
306 1 0.566451 0.186807 0.129025
310 1 0.684302 0.184707 0.121848
60 1 0.755382 0.191325 0.0649918
314 1 0.811011 0.189639 0.130441
318 1 0.932497 0.184256 0.125661
321 1 0.996729 0.246133 0.126807
325 1 0.124439 0.247864 0.128301
71 1 0.186318 0.255838 0.0680417
329 1 0.250398 0.251525 0.128163
333 1 0.370737 0.253086 0.125453
337 1 0.498846 0.24804 0.127333
83 1 0.561097 0.249824 0.0610007
341 1 0.623323 0.248396 0.126837
345 1 0.749568 0.256573 0.127606
349 1 0.86651 0.252039 0.126974
322 1 0.0561166 0.308528 0.126555
326 1 0.191702 0.313212 0.129814
330 1 0.308016 0.314419 0.132764
334 1 0.440221 0.313031 0.122476
338 1 0.563622 0.314349 0.124862
342 1 0.685806 0.309929 0.125449
346 1 0.80852 0.311471 0.127528
350 1 0.942913 0.312388 0.123987
357 1 0.122145 0.373961 0.127279
361 1 0.252373 0.375421 0.126108
365 1 0.375184 0.373057 0.126076
369 1 0.501053 0.375418 0.129791
373 1 0.623061 0.376612 0.12838
123 1 0.812025 0.374132 0.0624524
381 1 0.87842 0.372583 0.126142
354 1 0.0625607 0.435583 0.126386
358 1 0.189956 0.433408 0.123449
362 1 0.320321 0.434497 0.130054
366 1 0.441775 0.435255 0.118834
370 1 0.555149 0.443802 0.130473
374 1 0.687248 0.43726 0.127965
378 1 0.815514 0.42736 0.129924
382 1 0.932588 0.433483 0.120221
385 1 -0.00265941 0.499126 0.116657
389 1 0.126872 0.494993 0.126184
393 1 0.254274 0.497072 0.128631
397 1 0.379585 0.4988 0.125982
401 1 0.498455 0.506785 0.118286
405 1 0.623832 0.497334 0.129053
151 1 0.68704 0.494717 0.0632054
409 1 0.75164 0.496349 0.12349
413 1 0.872205 0.496231 0.124169
386 1 0.0665016 0.55841 0.122908
136 1 0.13131 0.561295 0.0611069
390 1 0.186808 0.56596 0.123042
394 1 0.317064 0.563173 0.126206
398 1 0.44278 0.567217 0.122823
402 1 0.56179 0.565574 0.12542
406 1 0.687099 0.555956 0.121097
410 1 0.810751 0.565682 0.124983
414 1 0.939418 0.567086 0.117487
421 1 0.124145 0.620613 0.120602
425 1 0.249336 0.62651 0.123957
429 1 0.377228 0.626884 0.121366
433 1 0.501876 0.628391 0.119589
437 1 0.621339 0.625294 0.120934
441 1 0.745873 0.631873 0.12315
445 1 0.871351 0.626702 0.123366
417 1 0.00386191 0.62232 0.117476
418 1 0.0604331 0.686224 0.129401
422 1 0.187097 0.691815 0.1217
426 1 0.312521 0.684148 0.12061
430 1 0.437498 0.68994 0.121499
434 1 0.558968 0.687866 0.117517
438 1 0.681939 0.687505 0.121856
442 1 0.811776 0.692636 0.123862
446 1 0.942738 0.691034 0.128556
453 1 0.130398 0.749556 0.124469
199 1 0.188007 0.758162 0.067156
457 1 0.249754 0.752926 0.12265
461 1 0.373516 0.753949 0.118856
207 1 0.431951 0.751101 0.0575388
465 1 0.492552 0.755248 0.120041
211 1 0.560043 0.754248 0.0622347
469 1 0.626662 0.751209 0.126029
473 1 0.748454 0.754156 0.123379
477 1 0.874608 0.75114 0.121777
449 1 0.00134233 0.751192 0.124404
450 1 0.0595123 0.812634 0.127147
454 1 0.190172 0.813946 0.129728
204 1 0.254599 0.812326 0.0577528
458 1 0.308653 0.821283 0.123777
462 1 0.432542 0.816167 0.121665
466 1 0.563254 0.814885 0.126084
470 1 0.691687 0.81616 0.123072
474 1 0.809073 0.817112 0.120079
224 1 0.869903 0.815753 0.0549909
478 1 0.934815 0.814427 0.124614
485 1 0.122893 0.871332 0.130123
489 1 0.247342 0.87717 0.122241
493 1 0.369186 0.876709 0.123245
497 1 0.493814 0.87679 0.130006
501 1 0.62394 0.871819 0.125002
505 1 0.751175 0.871405 0.118164
251 1 0.808407 0.876343 0.0537466
509 1 0.875343 0.87492 0.123429
481 1 0.998691 0.872508 0.132071
482 1 0.0589468 0.936515 0.124939
486 1 0.180571 0.929022 0.123454
490 1 0.311508 0.937951 0.121308
494 1 0.433882 0.938127 0.121142
498 1 0.561554 0.933233 0.12505
256 1 0.873056 0.936315 0.0639116
510 1 0.941704 0.935248 0.123395
228 1 0.00405328 0.939237 0.0649664
261 1 0.124389 0.999874 0.121058
502 1 0.691654 0.932596 0.124244
506 1 0.80524 0.937212 0.114725
285 1 0.871528 0.996533 0.121527
259 1 0.0660568 1.00381 0.183289
275 1 0.561673 0.998736 0.186017
287 1 0.932877 0.992761 0.182581
264 1 0.127246 0.0600821 0.184271
268 1 0.257616 0.0587041 0.184724
272 1 0.37399 0.0539675 0.182716
276 1 0.498597 0.0622946 0.184836
280 1 0.630235 0.0603546 0.184979
284 1 0.740519 0.0604617 0.191076
288 1 0.875934 0.0550434 0.180059
260 1 0.992934 0.0580027 0.185781
291 1 0.0582839 0.122057 0.185157
295 1 0.18888 0.123497 0.18777
299 1 0.308996 0.120616 0.195268
303 1 0.43937 0.12488 0.185499
307 1 0.558604 0.118397 0.191024
311 1 0.684493 0.123001 0.194296
315 1 0.806635 0.128398 0.187259
319 1 0.932051 0.121045 0.190278
296 1 0.122811 0.186045 0.193103
300 1 0.251451 0.192257 0.185681
304 1 0.372766 0.180266 0.189856
308 1 0.506102 0.18955 0.18917
312 1 0.624417 0.188125 0.186672
316 1 0.748917 0.189858 0.191783
320 1 0.874219 0.190301 0.193237
292 1 -0.000130981 0.184653 0.193753
323 1 0.0574225 0.251929 0.187937
327 1 0.187936 0.247869 0.188428
331 1 0.315504 0.2487 0.191116
335 1 0.445256 0.247315 0.190944
339 1 0.565922 0.252352 0.186479
343 1 0.685432 0.249055 0.189101
347 1 0.812519 0.252172 0.192442
351 1 0.937544 0.247272 0.188289
324 1 0.995592 0.313638 0.189383
328 1 0.119401 0.312017 0.184016
332 1 0.252468 0.314868 0.196832
336 1 0.381255 0.314195 0.18525
340 1 0.499224 0.314677 0.186969
344 1 0.625198 0.313833 0.185709
348 1 0.743002 0.308321 0.191179
352 1 0.876224 0.315829 0.190631
353 1 0.000114732 0.374771 0.127175
355 1 0.0622061 0.371361 0.188102
359 1 0.190174 0.375717 0.193334
363 1 0.317326 0.377135 0.191492
367 1 0.437541 0.37562 0.18886
371 1 0.564014 0.369431 0.189211
375 1 0.682546 0.378035 0.191446
377 1 0.749422 0.374419 0.133988
379 1 0.809054 0.377885 0.197199
383 1 0.940956 0.374985 0.1868
360 1 0.124948 0.437592 0.185812
364 1 0.249098 0.435151 0.187374
368 1 0.377987 0.43708 0.190713
372 1 0.492593 0.440588 0.191089
376 1 0.625931 0.441385 0.191195
380 1 0.747922 0.436422 0.187641
384 1 0.875226 0.446107 0.189422
356 1 0.993114 0.439662 0.190027
387 1 0.0621216 0.501818 0.187536
391 1 0.186977 0.497738 0.187977
395 1 0.319216 0.503062 0.183438
399 1 0.440634 0.505665 0.181926
403 1 0.567784 0.50566 0.198641
407 1 0.691094 0.501218 0.18542
411 1 0.807707 0.499215 0.188559
415 1 0.935244 0.502069 0.178851
392 1 0.122478 0.561168 0.186149
396 1 0.250255 0.564273 0.187504
400 1 0.380415 0.56956 0.182901
404 1 0.501505 0.561453 0.189919
408 1 0.624698 0.571941 0.182442
412 1 0.749317 0.570464 0.182518
416 1 0.872766 0.562403 0.182051
388 1 0.997091 0.559865 0.181093
419 1 0.0595061 0.616653 0.185825
423 1 0.185168 0.626698 0.182164
427 1 0.312612 0.621023 0.188708
431 1 0.436162 0.632257 0.18708
435 1 0.560502 0.625483 0.18448
439 1 0.688802 0.629504 0.186043
443 1 0.810206 0.630281 0.186575
447 1 0.936833 0.622959 0.179878
424 1 0.123947 0.687831 0.186618
428 1 0.250675 0.688875 0.188928
432 1 0.373572 0.688136 0.180124
436 1 0.49969 0.687101 0.187358
440 1 0.626425 0.684226 0.186964
444 1 0.749532 0.692275 0.185871
448 1 0.877131 0.682768 0.187356
420 1 0.999507 0.688827 0.188349
451 1 0.0609552 0.743901 0.187028
455 1 0.186866 0.749635 0.187203
459 1 0.312583 0.749376 0.183712
463 1 0.436489 0.756774 0.181806
467 1 0.559046 0.751394 0.176089
471 1 0.686974 0.750955 0.190083
475 1 0.816553 0.757427 0.183986
479 1 0.931653 0.751122 0.183367
452 1 0.999429 0.805443 0.187253
456 1 0.125008 0.81413 0.185364
460 1 0.25298 0.810007 0.190342
464 1 0.372902 0.813164 0.188301
468 1 0.502038 0.816793 0.186051
472 1 0.630091 0.814107 0.187357
476 1 0.754588 0.814868 0.182617
480 1 0.875961 0.815989 0.187153
483 1 0.0636314 0.874176 0.192545
487 1 0.190021 0.871363 0.187322
491 1 0.308539 0.877811 0.185876
495 1 0.434025 0.876866 0.184601
499 1 0.56619 0.871517 0.188438
503 1 0.696031 0.874628 0.186003
507 1 0.812419 0.875879 0.181707
511 1 0.938048 0.876923 0.189763
488 1 0.123897 0.940158 0.185448
492 1 0.246186 0.938304 0.184185
496 1 0.371849 0.934991 0.190202
500 1 0.49796 0.940791 0.189457
508 1 0.754166 0.934695 0.181891
512 1 0.87187 0.932077 0.185188
263 1 0.189991 -0.00248795 0.183122
267 1 0.311594 0.994843 0.186746
271 1 0.436362 0.996025 0.190118
504 1 0.623013 0.936362 0.184433
279 1 0.686621 0.991245 0.189801
283 1 0.80988 1.00137 0.186824
484 1 0.00141883 0.942284 0.185256
518 1 0.18393 0.0647362 0.250065
521 1 0.247404 0.994757 0.246358
526 1 0.439669 0.0626175 0.247096
530 1 0.565147 0.0585227 0.255936
537 1 0.751125 0.99835 0.250143
513 1 0.999443 0.000799033 0.246413
514 1 0.0564818 0.0625938 0.241743
522 1 0.312063 0.0604836 0.254145
534 1 0.684032 0.0643398 0.258037
538 1 0.806658 0.0617415 0.247842
542 1 0.927933 0.0665107 0.255744
545 1 0.997598 0.125836 0.253284
549 1 0.124178 0.125064 0.243153
553 1 0.245591 0.124676 0.25156
557 1 0.374541 0.122886 0.249334
561 1 0.492504 0.12761 0.250565
565 1 0.621776 0.120428 0.25763
569 1 0.748228 0.12424 0.248849
573 1 0.869181 0.125349 0.249459
546 1 0.0627613 0.188516 0.254917
550 1 0.183925 0.187562 0.249436
554 1 0.310471 0.187905 0.247538
558 1 0.431118 0.189543 0.253966
562 1 0.562807 0.182416 0.250222
566 1 0.682074 0.184544 0.250518
570 1 0.805965 0.1891 0.253904
574 1 0.936701 0.189204 0.249446
577 1 0.994698 0.248223 0.249863
581 1 0.120867 0.251831 0.247746
585 1 0.247891 0.245427 0.252571
589 1 0.375489 0.253454 0.247607
593 1 0.505864 0.253617 0.245585
597 1 0.629796 0.249035 0.249968
601 1 0.74645 0.248513 0.249829
605 1 0.874352 0.251604 0.251596
578 1 0.0586886 0.31102 0.248882
582 1 0.184371 0.311608 0.246752
586 1 0.318117 0.312872 0.251504
590 1 0.440318 0.310511 0.250818
594 1 0.566827 0.311586 0.25237
598 1 0.684472 0.318532 0.24899
602 1 0.813356 0.314684 0.252122
606 1 0.937535 0.312817 0.251696
609 1 0.998819 0.373545 0.249943
613 1 0.124441 0.374228 0.246209
617 1 0.254956 0.378085 0.250507
621 1 0.372198 0.375239 0.255291
625 1 0.499052 0.378373 0.251026
629 1 0.624875 0.375048 0.253946
633 1 0.747447 0.377112 0.256698
637 1 0.874359 0.377832 0.248399
610 1 0.0560156 0.440485 0.253951
614 1 0.189545 0.437875 0.247333
618 1 0.310586 0.44105 0.251144
622 1 0.432991 0.446466 0.250276
626 1 0.56695 0.438307 0.251969
630 1 0.687441 0.440147 0.255928
634 1 0.811832 0.438324 0.258524
638 1 0.937299 0.439023 0.253874
641 1 0.995765 0.50055 0.250022
645 1 0.120147 0.49707 0.249316
649 1 0.252663 0.506081 0.250197
653 1 0.37257 0.509694 0.247598
657 1 0.50032 0.506288 0.253051
661 1 0.630083 0.501161 0.250678
665 1 0.747242 0.500032 0.249087
669 1 0.877686 0.507063 0.247132
642 1 0.0596824 0.561327 0.253373
646 1 0.187355 0.563479 0.242724
650 1 0.311261 0.563362 0.24957
654 1 0.437097 0.563533 0.247744
658 1 0.570408 0.569478 0.250056
662 1 0.692335 0.562297 0.243332
666 1 0.811418 0.5612 0.244411
670 1 0.93841 0.563707 0.239932
673 1 0.998032 0.622697 0.244997
677 1 0.126002 0.622711 0.246238
681 1 0.24975 0.623759 0.243353
685 1 0.377283 0.622178 0.249989
689 1 0.49587 0.627623 0.250159
693 1 0.630047 0.63221 0.248126
697 1 0.751506 0.627785 0.247408
701 1 0.878428 0.624199 0.255205
674 1 0.0628044 0.689719 0.249015
678 1 0.179623 0.688206 0.25212
682 1 0.310321 0.69293 0.248984
686 1 0.433196 0.694596 0.24275
690 1 0.559684 0.690192 0.246753
694 1 0.691735 0.689135 0.248813
698 1 0.818871 0.685914 0.253893
702 1 0.936362 0.687346 0.24981
705 1 0.00639831 0.749358 0.251724
709 1 0.120839 0.75297 0.245188
713 1 0.249932 0.753904 0.253363
717 1 0.369196 0.751559 0.250877
721 1 0.498538 0.752532 0.243596
725 1 0.624953 0.749143 0.247727
729 1 0.756405 0.751334 0.246151
733 1 0.877715 0.751648 0.251014
706 1 0.0615511 0.814798 0.247776
710 1 0.183345 0.814182 0.247896
714 1 0.314629 0.818361 0.250582
718 1 0.438791 0.816847 0.243425
722 1 0.565965 0.810872 0.249735
726 1 0.690341 0.812759 0.247975
730 1 0.814822 0.816193 0.245523
734 1 0.937007 0.81557 0.24732
741 1 0.122811 0.875982 0.249039
745 1 0.251625 0.877854 0.253926
749 1 0.37991 0.871547 0.253436
753 1 0.505854 0.87479 0.251621
757 1 0.628962 0.872933 0.24144
761 1 0.753112 0.873823 0.24631
765 1 0.88129 0.876884 0.246165
737 1 0.00186773 0.875095 0.251106
742 1 0.183921 0.933098 0.245349
746 1 0.315045 0.934219 0.247844
750 1 0.439739 0.936179 0.249619
754 1 0.564646 0.939287 0.250602
758 1 0.692649 0.930595 0.247902
762 1 0.81301 0.936894 0.244467
738 1 0.0618886 0.940786 0.246684
517 1 0.124343 -0.000427179 0.248917
525 1 0.375343 0.0019359 0.247139
529 1 0.501697 1.00146 0.252584
533 1 0.629194 0.996422 0.248246
541 1 0.870917 0.00159518 0.251796
766 1 0.934067 0.94417 0.249003
515 1 0.0597376 0.00391729 0.312837
519 1 0.185657 0.996254 0.31278
532 1 0.497964 0.062852 0.311653
543 1 0.930751 0.00660856 0.315521
516 1 0.997641 0.0618793 0.313683
520 1 0.12384 0.0714976 0.314033
524 1 0.249947 0.0610678 0.309591
528 1 0.374055 0.0623561 0.314023
536 1 0.625002 0.0584888 0.317097
540 1 0.753762 0.0589918 0.309447
544 1 0.863532 0.0593982 0.314173
547 1 0.0579406 0.122297 0.30917
551 1 0.18464 0.124068 0.319617
555 1 0.314173 0.12152 0.313908
559 1 0.434357 0.123303 0.312377
563 1 0.560039 0.121606 0.316097
567 1 0.683683 0.124907 0.314182
571 1 0.810078 0.126215 0.314884
575 1 0.934045 0.124833 0.312219
552 1 0.124739 0.185309 0.310608
556 1 0.258525 0.187265 0.313896
560 1 0.371468 0.182092 0.314225
564 1 0.494023 0.182833 0.313969
568 1 0.621364 0.189344 0.311309
572 1 0.751245 0.190747 0.310844
576 1 0.87322 0.182906 0.316251
548 1 0.998141 0.189182 0.31032
579 1 0.0575875 0.258478 0.31236
583 1 0.184865 0.24431 0.310274
587 1 0.319308 0.24976 0.306276
591 1 0.439982 0.247811 0.31352
595 1 0.559346 0.244852 0.307986
599 1 0.687627 0.246553 0.313279
603 1 0.814214 0.252408 0.313261
607 1 0.939474 0.252916 0.312845
584 1 0.126753 0.308356 0.308899
588 1 0.247594 0.310759 0.30741
592 1 0.379665 0.311966 0.310917
596 1 0.497931 0.316098 0.314722
600 1 0.63296 0.311158 0.3163
604 1 0.74817 0.308707 0.312238
608 1 0.880954 0.318238 0.309612
580 1 0.997344 0.317387 0.318152
611 1 0.0574997 0.377509 0.313455
615 1 0.184664 0.372439 0.30933
619 1 0.312023 0.374096 0.311131
623 1 0.437 0.373388 0.308939
627 1 0.561178 0.380089 0.312608
631 1 0.687918 0.378216 0.318882
635 1 0.811359 0.375726 0.313941
639 1 0.938021 0.381019 0.314389
612 1 0.998947 0.437878 0.315909
616 1 0.122904 0.435427 0.310644
620 1 0.249797 0.441768 0.308481
624 1 0.372967 0.441657 0.312838
628 1 0.501167 0.438915 0.30851
632 1 0.63019 0.440427 0.316463
636 1 0.751505 0.439747 0.313886
640 1 0.875782 0.434819 0.315848
643 1 0.0640175 0.498606 0.31504
647 1 0.185879 0.497954 0.308114
651 1 0.306484 0.503979 0.313921
655 1 0.430356 0.505275 0.312704
659 1 0.565237 0.502484 0.308922
663 1 0.691705 0.500128 0.309464
667 1 0.815352 0.501691 0.310948
671 1 0.941253 0.503032 0.312927
644 1 0.992598 0.565797 0.309385
648 1 0.13052 0.561048 0.315619
652 1 0.242992 0.5655 0.308885
656 1 0.368082 0.568297 0.314898
660 1 0.507806 0.567677 0.309779
664 1 0.634227 0.563664 0.310079
668 1 0.754908 0.561142 0.30636
672 1 0.879067 0.560943 0.309526
675 1 0.0633962 0.623025 0.312013
679 1 0.181479 0.628829 0.311835
683 1 0.311279 0.63013 0.305631
687 1 0.435908 0.623895 0.314371
691 1 0.560377 0.634255 0.309456
695 1 0.690912 0.625979 0.307159
699 1 0.81158 0.626843 0.310235
703 1 0.939333 0.626949 0.30911
676 1 0.00283106 0.683835 0.304343
680 1 0.123122 0.689981 0.310788
684 1 0.245436 0.68442 0.302686
688 1 0.374167 0.688855 0.312524
150 1 0.687265 0.55977 0.00454019
17 1 0.499573 0.995893 0.00274233
193 1 0.999674 0.746422 0.00128128
66 1 0.0620749 0.307468 0.0056333
62 1 0.935185 0.190291 0.0025432
153 1 0.748479 0.500055 0.000778092
129 1 1.00021 0.499428 0.00134465
90 1 0.813924 0.316609 -0.000130627
106 1 0.314746 0.439216 0.00484579
97 1 1.00255 0.373726 0.00314603
186 1 0.811044 0.688775 -2.50506e-05
165 1 0.127412 0.630224 0.000948298
154 1 0.810819 0.564419 0.000673976
38 1 0.19329 0.189957 0.00837985
130 1 0.0677502 0.564624 -0.000648409
222 1 0.940066 0.814497 0.00645419
89 1 0.752463 0.246315 0.00370379
37 1 0.12885 0.125926 0.0075475
189 1 0.873008 0.628599 0.00372489
102 1 0.190869 0.439146 0.00549586
14 1 0.434016 0.0638622 0.000798413
25 1 0.750323 0.000468863 0.00116252
33 1 0.999357 0.121157 0.0058083
94 1 0.932369 0.307016 0.00265069
86 1 0.68144 0.314233 0.00795954
58 1 0.811722 0.182003 0.0031277
770 1 0.0566696 0.0642691 0.376526
778 1 0.307372 0.0579551 0.375184
782 1 0.438666 0.0573235 0.377916
785 1 0.498077 0.996324 0.373579
774 1 0.182061 0.0609036 0.376571
786 1 0.560297 0.0638178 0.374011
790 1 0.690013 0.0606519 0.374236
794 1 0.811765 0.0617178 0.380922
798 1 0.932149 0.0597198 0.380991
801 1 1.00061 0.124729 0.371496
805 1 0.121574 0.126147 0.379475
809 1 0.247427 0.131325 0.377171
813 1 0.377029 0.124849 0.376377
817 1 0.497562 0.125222 0.378962
821 1 0.618647 0.127716 0.378162
825 1 0.747874 0.127386 0.375145
829 1 0.873799 0.121696 0.374821
802 1 0.0620446 0.187995 0.370462
806 1 0.184086 0.190959 0.373069
810 1 0.314069 0.184546 0.376749
814 1 0.43304 0.191315 0.376833
818 1 0.557544 0.185282 0.373061
822 1 0.688224 0.188233 0.376878
826 1 0.810309 0.189624 0.374492
830 1 0.938787 0.189363 0.371099
833 1 0.00331176 0.246703 0.37373
837 1 0.123894 0.250456 0.371475
841 1 0.244866 0.251175 0.374087
845 1 0.375961 0.251912 0.370914
849 1 0.500682 0.252637 0.374643
853 1 0.631207 0.247878 0.373967
857 1 0.753188 0.252941 0.374996
861 1 0.876544 0.248689 0.374015
834 1 0.0589197 0.309537 0.37714
838 1 0.185963 0.315478 0.370849
842 1 0.312917 0.31019 0.3623
846 1 0.441509 0.320845 0.378316
850 1 0.571107 0.315293 0.370225
854 1 0.690342 0.315379 0.384673
858 1 0.811152 0.316611 0.377047
862 1 0.936939 0.311349 0.375251
869 1 0.124711 0.373596 0.373688
873 1 0.25213 0.375109 0.37266
877 1 0.3765 0.377891 0.371481
881 1 0.501753 0.37974 0.373773
885 1 0.628674 0.375186 0.376398
889 1 0.750105 0.37573 0.376329
893 1 0.875386 0.369305 0.376559
865 1 0.997877 0.37681 0.378886
866 1 0.0664574 0.435271 0.377291
870 1 0.1873 0.44262 0.372173
874 1 0.305284 0.439462 0.374933
878 1 0.437472 0.440921 0.363449
882 1 0.560877 0.443214 0.373412
886 1 0.694081 0.445478 0.376672
890 1 0.819474 0.432218 0.376909
894 1 0.937483 0.443605 0.378179
901 1 0.127456 0.501978 0.369889
905 1 0.246853 0.506027 0.37333
909 1 0.371096 0.499223 0.373227
913 1 0.495733 0.50089 0.368927
917 1 0.626404 0.498827 0.37328
921 1 0.756185 0.501975 0.37064
925 1 0.880157 0.502064 0.372819
897 1 0.00155409 0.500653 0.37441
898 1 0.0678794 0.559771 0.371233
902 1 0.187485 0.568926 0.376091
906 1 0.300583 0.568521 0.367614
910 1 0.437657 0.56445 0.37561
914 1 0.561329 0.558974 0.370186
918 1 0.688564 0.56171 0.374536
922 1 0.820365 0.562913 0.371353
926 1 0.938727 0.574358 0.372605
933 1 0.120576 0.629933 0.379831
937 1 0.243558 0.631647 0.370014
941 1 0.372086 0.630527 0.371502
945 1 0.499494 0.623774 0.376635
949 1 0.628614 0.621176 0.374724
953 1 0.751522 0.621416 0.371314
957 1 0.87168 0.633721 0.380038
929 1 0.00285355 0.630387 0.371763
930 1 0.0644389 0.69115 0.366482
934 1 0.179796 0.68615 0.379162
938 1 0.306052 0.683738 0.377211
942 1 0.436109 0.683539 0.374738
946 1 0.566571 0.685053 0.371316
950 1 0.685993 0.691003 0.376872
954 1 0.808448 0.693895 0.375747
958 1 0.941141 0.690332 0.365538
965 1 0.124828 0.753191 0.37634
969 1 0.240186 0.742437 0.372085
973 1 0.368843 0.746809 0.380135
977 1 0.495517 0.746816 0.379515
981 1 0.626073 0.750739 0.37328
985 1 0.748295 0.751795 0.374301
989 1 0.878692 0.75337 0.369384
961 1 0.000910702 0.75034 0.367485
962 1 0.0618123 0.815225 0.36885
966 1 0.185798 0.808814 0.371224
970 1 0.309275 0.807808 0.374704
974 1 0.443738 0.808921 0.369506
978 1 0.564465 0.813352 0.372506
982 1 0.689111 0.818149 0.370123
986 1 0.818551 0.815737 0.371266
990 1 0.939175 0.816309 0.374324
997 1 0.129936 0.879025 0.371059
1001 1 0.245973 0.868378 0.375016
1005 1 0.383242 0.87241 0.373416
1009 1 0.504731 0.875858 0.368764
1013 1 0.626564 0.876407 0.371034
1017 1 0.752069 0.876582 0.37787
1021 1 0.874604 0.880446 0.376695
993 1 0.00553992 0.876817 0.373533
994 1 0.0614315 0.940544 0.373865
998 1 0.186104 0.939183 0.377704
1002 1 0.307127 0.937763 0.380746
1006 1 0.438709 0.935694 0.371417
1014 1 0.685766 0.933743 0.37769
1018 1 0.813871 0.937181 0.379408
1022 1 0.94183 0.938876 0.379059
773 1 0.122023 0.995609 0.371409
777 1 0.244664 1.00321 0.382098
781 1 0.370917 0.00308475 0.372426
1010 1 0.561634 0.937825 0.375281
789 1 0.621033 0.00421701 0.376757
793 1 0.752685 0.00422063 0.377622
797 1 0.870168 0.00160646 0.377913
769 1 -0.000160885 1.0003 0.379788
775 1 0.179633 1.00383 0.439007
779 1 0.313346 0.997171 0.438894
787 1 0.558574 0.00279321 0.436403
791 1 0.680794 0.00389708 0.436802
796 1 0.750388 0.067857 0.435441
795 1 0.813185 0.000829138 0.443656
799 1 0.939428 0.00313185 0.438718
772 1 1.00053 0.0651071 0.438506
776 1 0.124915 0.0639826 0.437809
780 1 0.244847 0.0613864 0.440758
784 1 0.376182 0.0599494 0.437189
788 1 0.495598 0.0639939 0.445523
792 1 0.616085 0.0637179 0.440382
800 1 0.873248 0.0637748 0.44457
803 1 0.0569103 0.127835 0.432854
807 1 0.187199 0.125001 0.440873
811 1 0.305509 0.120418 0.438387
815 1 0.43224 0.124275 0.438671
819 1 0.559953 0.126706 0.442226
823 1 0.689589 0.129308 0.434759
827 1 0.814014 0.132624 0.436918
831 1 0.938298 0.126543 0.435285
808 1 0.128344 0.180511 0.441872
812 1 0.24513 0.19168 0.439437
816 1 0.374437 0.190638 0.438771
820 1 0.495417 0.191989 0.431571
824 1 0.629854 0.193557 0.43824
828 1 0.748741 0.189504 0.435358
832 1 0.882979 0.183286 0.434005
804 1 0.998638 0.190128 0.441367
835 1 0.0642252 0.247192 0.432927
839 1 0.185637 0.256387 0.433591
843 1 0.310413 0.257268 0.432973
847 1 0.437634 0.250344 0.434973
851 1 0.561269 0.244716 0.438376
855 1 0.693515 0.24985 0.444159
859 1 0.808576 0.245871 0.441405
863 1 0.93751 0.246723 0.438386
836 1 0.995415 0.312637 0.440733
840 1 0.121887 0.311389 0.432017
844 1 0.246453 0.318824 0.440391
848 1 0.376031 0.318207 0.435924
852 1 0.507596 0.315275 0.431669
856 1 0.625536 0.311297 0.434983
860 1 0.751879 0.311299 0.440941
864 1 0.876284 0.308981 0.436218
867 1 0.0602337 0.375293 0.439759
871 1 0.185437 0.376963 0.439866
875 1 0.309185 0.376151 0.4332
879 1 0.443166 0.382847 0.440446
883 1 0.565764 0.37848 0.440454
887 1 0.69045 0.381464 0.435567
891 1 0.815929 0.376509 0.439476
895 1 0.936199 0.374882 0.4411
868 1 1.00268 0.441922 0.434468
872 1 0.121404 0.438712 0.437365
876 1 0.244181 0.43907 0.432283
880 1 0.376113 0.434687 0.444323
884 1 0.507224 0.437846 0.434661
888 1 0.623995 0.434909 0.436197
892 1 0.752205 0.443273 0.438465
896 1 0.87695 0.433917 0.442236
899 1 0.0629589 0.499916 0.43859
903 1 0.183261 0.499047 0.435394
907 1 0.311335 0.509239 0.435644
911 1 0.436947 0.495357 0.434597
915 1 0.566152 0.502854 0.437444
919 1 0.688766 0.4935 0.44092
923 1 0.821899 0.494753 0.434879
927 1 0.939413 0.503967 0.43736
904 1 0.122878 0.560636 0.437028
908 1 0.243306 0.563299 0.439656
912 1 0.37624 0.566089 0.43478
916 1 0.501174 0.555006 0.434464
920 1 0.626994 0.562063 0.434854
924 1 0.760246 0.559946 0.435004