ITEM: TIMESTEP
100000
ITEM: NUMBER OF ATOMS
2048
ITEM: BOX BOUNDS pp pp pp
0.0000000000000000e+00 1.3153131063095840e+01
0.0000000000000000e+00 1.3153131063095840e+01
0.0000000000000000e+00 1.3153131063095840e+01
ITEM: ATOMS id type xs ys zs
1680 1 0.00775892 0.0269961 0.0445168
145 1 0.0732425 0.037486 0.0165997
525 1 0.249333 0.0467845 0.0143991
1792 1 0.437527 0.0365716 0.0174671
1725 1 0.584768 0.0480726 0.0136939
1658 1 0.709409 0.0474723 0.0103595
98 1 0.144749 0.0614129 0.0162968
559 1 0.364161 0.0624316 0.0174859
1124 1 0.540435 0.0889376 0.0539595
399 1 0.653336 0.0951626 0.0217971
641 1 0.770261 0.0797376 0.0276962
55 1 0.870971 0.0985642 0.0164625
1461 1 0.916959 0.0515837 0.0444087
240 1 0.207911 0.128972 0.0104
197 1 0.327877 0.133102 0.0343261
1854 1 0.409764 0.145544 0.0226278
1881 1 0.492426 0.114956 0.0064192
1401 1 0.56186 0.144507 0.00146736
575 1 0.0832085 0.189303 0.0446197
965 1 0.265773 0.181966 0.0421748
644 1 0.628777 0.17861 0.0239543
1607 1 0.777679 0.199878 0.0186183
820 1 0.865713 0.192923 0.00907743
349 1 0.945313 0.195416 0.0441992
144 1 0.012587 0.202091 0.0143345
1382 1 0.174591 0.204936 0.044757
460 1 0.369398 0.220712 0.0382643
462 1 0.0760583 0.286862 0.026016
235 1 0.17974 0.278828 0.0517762
1094 1 0.2734 0.274476 0.00334211
941 1 0.515143 0.295791 0.0156216
1531 1 0.718455 0.281762 0.0369307
1272 1 0.876167 0.288636 0.0277413
1243 1 0.948139 0.278183 0.0203771
1350 1 0.202329 0.342854 0.0254108
1276 1 0.394815 0.316799 0.0474327
199 1 0.572647 0.340176 0.0476616
207 1 0.141399 0.393841 0.0343449
527 1 0.277704 0.36481 0.0127548
283 1 0.488476 0.397301 0.00754487
370 1 0.668409 0.364574 0.0480996
1790 1 0.723111 0.393093 0.00950004
1494 1 0.856726 0.359802 0.0200875
183 1 0.0649167 0.432758 0.0250381
1147 1 0.251136 0.424716 0.0485886
2013 1 0.314573 0.442664 0.0130043
147 1 0.41319 0.406361 0.0207427
436 1 0.603734 0.416658 0.034317
940 1 0.986309 0.423472 0.0489216
1315 1 0.0146816 0.495168 0.0354099
1503 1 0.138708 0.474577 0.0438257
1489 1 0.260074 0.487713 0.00541911
637 1 0.394898 0.47709 0.030627
673 1 0.533889 0.465028 0.0422861
1323 1 0.669166 0.454915 0.0428766
1018 1 0.763311 0.453168 0.0304063
92 1 0.847969 0.454204 0.0358389
1452 1 0.931332 0.483582 0.00441356
1396 1 0.121528 0.54886 0.0305566
867 1 0.197861 0.519264 0.0161236
1681 1 0.55827 0.521286 0.00428612
758 1 0.643126 0.528467 0.0285626
342 1 0.0494375 0.5691 0.0423984
760 1 0.251901 0.570789 0.0234467
1240 1 0.421304 0.550687 0.0233082
672 1 0.513398 0.579292 0.0396749
792 1 0.778665 0.577457 0.0310182
1249 1 0.853702 0.553012 0.0227403
1141 1 0.922189 0.553875 0.0513961
127 1 0.0521809 0.642853 0.0547404
1623 1 0.125073 0.648107 0.0287298
310 1 0.181964 0.60642 0.00592277
1906 1 0.299368 0.646597 0.00282389
563 1 0.367948 0.608762 0.00638481
463 1 0.550427 0.631108 0.00317849
77 1 0.668524 0.602675 0.00372681
1904 1 0.976509 0.647237 0.01973
1953 1 0.690977 0.662437 0.0512
1384 1 0.749367 0.652692 0.0107144
1291 1 0.868509 0.696187 0.0102454
790 1 0.168637 0.715113 0.0365488
1115 1 0.253394 0.702757 0.0375737
1673 1 0.653713 0.728977 0.0258775
1055 1 0.744396 0.731058 0.00757872
1582 1 0.816752 0.749158 0.0311615
1847 1 0.963034 0.73928 0.0171756
1698 1 0.0279699 0.787962 0.0324181
1719 1 0.358737 0.784652 0.00553746
1500 1 0.420793 0.791894 0.0423876
108 1 0.50579 0.781373 0.0440425
1968 1 0.570522 0.754724 0.00116863
1951 1 0.722323 0.798303 0.0450115
1575 1 0.891007 0.796876 0.0286646
260 1 0.17392 0.812682 0.0240525
707 1 0.303969 0.81539 0.0484224
1995 1 0.569192 0.831465 0.0117328
1224 1 0.632828 0.800837 0.0356872
1419 1 0.1614 0.896946 0.0308762
332 1 0.376426 0.866671 0.0181376
1502 1 0.50241 0.863541 0.00340984
1393 1 0.695337 0.899738 0.0445321
557 1 0.921572 0.872683 0.0495719
1584 1 0.226051 0.927815 0.0439913
1934 1 0.304471 0.900914 0.0346386
1764 1 0.432469 0.929205 0.0152512
318 1 0.542714 0.928593 0.0413539
392 1 0.769787 0.901593 0.0537388
209 1 0.973899 0.901539 0.00496233
1733 1 0.11971 0.959832 0.0550868
509 1 0.180183 0.995414 0.0158963
1144 1 0.2887 0.982259 0.0269918
1900 1 0.370191 0.980217 0.02064
1334 1 0.623583 0.956637 0.0339954
1635 1 0.751952 0.976239 0.0267957
744 1 0.825583 0.950012 0.0133297
1449 1 0.936276 0.977946 0.0467081
1353 1 0.0409242 0.0434131 0.109708
1482 1 0.107665 0.0301666 0.0789747
1134 1 0.18698 0.0364117 0.0831088
984 1 0.35713 0.00176193 0.0940387
82 1 0.43859 0.017771 0.105083
1349 1 0.526517 0.0176192 0.103337
967 1 0.662927 0.0157051 0.0671303
103 1 0.800204 0.0284433 0.0679906
104 1 0.306395 0.053695 0.0821122
1006 1 0.39646 0.0984847 0.0776816
308 1 0.475776 0.0912678 0.0957017
1987 1 0.725719 0.0779544 0.0914917
2034 1 0.840274 0.0893727 0.0958982
495 1 0.0480309 0.127302 0.0657817
1492 1 0.164514 0.123343 0.0668079
208 1 0.249824 0.109764 0.0690488
466 1 0.594513 0.143301 0.0896242
1565 1 0.67624 0.141119 0.0934427
684 1 0.752054 0.14403 0.0682414
37 1 0.901101 0.14963 0.0826577
1050 1 0.960419 0.12081 0.0587297
1355 1 0.00407362 0.197953 0.0938593
1810 1 0.301999 0.152708 0.107133
704 1 0.393165 0.181068 0.103049
1424 1 0.482047 0.157247 0.0684346
1876 1 0.707621 0.196235 0.0556454
1618 1 0.82716 0.156492 0.0635508
58 1 0.122278 0.244004 0.0898148
1023 1 0.320754 0.228327 0.100438
1552 1 0.525699 0.246683 0.0771863
1432 1 0.596994 0.220464 0.0764529
1148 1 0.830319 0.230282 0.0823061
1257 1 0.901112 0.220187 0.109436
7 1 0.016421 0.267579 0.0792297
1625 1 0.250809 0.279221 0.0765283
1947 1 0.432028 0.251293 0.075774
1158 1 0.625269 0.292328 0.0575968
36 1 0.752575 0.26356 0.0999124
201 1 0.940128 0.297356 0.0987641
378 1 0.127604 0.339903 0.0864231
1339 1 0.319316 0.342165 0.0670366
1924 1 0.508355 0.333605 0.0815564
1737 1 0.709941 0.327171 0.0976838
1912 1 0.76812 0.3477 0.0570363
1626 1 0.854444 0.308332 0.108456
452 1 0.0488846 0.352648 0.0788623
1027 1 0.248846 0.35575 0.0941606
2031 1 0.435502 0.357534 0.0944896
1659 1 0.626548 0.382156 0.102332
712 1 0.969211 0.354905 0.0634356
252 1 0.192446 0.401667 0.0909257
1889 1 0.363453 0.426484 0.0774703
1509 1 0.469246 0.437238 0.0858425
353 1 0.538587 0.400393 0.0889492
251 1 0.883476 0.403122 0.0754747
1203 1 0.946795 0.403444 0.110139
1422 1 0.074156 0.496588 0.0758227
518 1 0.199325 0.472526 0.0998941
1976 1 0.295363 0.478188 0.0724129
799 1 0.38945 0.487064 0.109244
491 1 0.600202 0.468656 0.0873111
206 1 0.9384 0.469439 0.0919631
93 1 0.240019 0.536392 0.0964577
1590 1 0.472571 0.512322 0.0572596
1749 1 0.699079 0.519451 0.0721936
886 1 0.769063 0.527645 0.110796
976 1 0.8416 0.502269 0.0908902
212 1 0.354053 0.552835 0.0607025
1662 1 0.477375 0.577754 0.103205
1218 1 0.585301 0.564329 0.0558645
1026 1 0.734422 0.593651 0.0887365
990 1 0.984376 0.592813 0.0686842
620 1 0.244337 0.641691 0.0871928
478 1 0.308933 0.610406 0.074943
727 1 0.392385 0.632485 0.100747
1091 1 0.454113 0.637015 0.0596977
35 1 0.542404 0.632197 0.078078
1919 1 0.614916 0.646514 0.0608388
686 1 0.661077 0.601431 0.0969024
44 1 0.840678 0.614191 0.0620189
158 1 0.91801 0.628299 0.065083
415 1 0.166847 0.661426 0.103334
492 1 0.336406 0.691946 0.0609354
1983 1 0.856635 0.680778 0.0826775
50 1 0.993718 0.690644 0.0882767
548 1 0.0689851 0.730835 0.0630942
1427 1 0.400296 0.727483 0.0869688
129 1 0.487976 0.711078 0.0590998
1614 1 0.560952 0.700623 0.0560242
1909 1 0.62933 0.710085 0.0912433
910 1 0.74127 0.735236 0.0852028
279 1 0.922155 0.70086 0.0634638
61 1 0.131744 0.767412 0.0779898
87 1 0.245473 0.775654 0.0747409
1999 1 0.33094 0.756013 0.10554
1201 1 0.580207 0.783979 0.0844153
1752 1 0.658998 0.775246 0.104371
1587 1 0.888149 0.787417 0.103964
1402 1 0.968547 0.762943 0.0942151
1468 1 0.0653268 0.805478 0.087711
2046 1 0.362204 0.842149 0.0890876
1407 1 0.690178 0.84773 0.103193
372 1 0.762972 0.842251 0.0982849
1381 1 0.983606 0.839584 0.0599698
1328 1 0.0460926 0.881859 0.073905
1897 1 0.117147 0.856947 0.0931886
1086 1 0.215259 0.876911 0.0948782
1478 1 0.440612 0.897479 0.0867399
1241 1 0.509099 0.861271 0.0785771
837 1 0.584593 0.86895 0.0699434
2023 1 0.836346 0.869993 0.0651328
72 1 0.368881 0.921277 0.0698054
133 1 0.820794 0.930493 0.106849
512 1 0.919993 0.930402 0.102856
2002 1 0.00725972 0.951378 0.0570395
1914 1 0.191548 0.958869 0.0994919
1169 1 0.276217 0.976997 0.106804
486 1 0.477621 0.959272 0.0713657
1862 1 0.577356 0.964983 0.108184
595 1 0.660913 0.952034 0.0992898
665 1 0.738699 0.990346 0.0998062
691 1 0.872272 0.998508 0.0945615
1880 1 0.206089 0.00884109 0.151724
553 1 0.310874 0.0140478 0.158669
403 1 0.590756 0.0250423 0.160114
795 1 0.102554 0.0863325 0.124607
1142 1 0.26241 0.0702238 0.148561
2017 1 0.393295 0.0531042 0.148596
221 1 0.470628 0.0525252 0.15816
1941 1 0.569905 0.088339 0.135027
1664 1 0.662375 0.0759486 0.13004
1929 1 0.785975 0.0675597 0.134871
34 1 0.0251514 0.127643 0.140655
263 1 0.358161 0.116693 0.140054
1394 1 0.42926 0.12446 0.155948
1196 1 0.507041 0.145142 0.15097
407 1 0.723083 0.125386 0.157072
97 1 0.797309 0.136283 0.126178
121 1 0.900502 0.100242 0.136178
170 1 0.121028 0.159632 0.117655
1592 1 0.184754 0.182739 0.145125
1111 1 0.740958 0.199146 0.140528
272 1 0.958144 0.15447 0.12734
1855 1 0.0523761 0.210651 0.146421
1073 1 0.252809 0.215675 0.125518
414 1 0.666216 0.210096 0.118084
243 1 0.972931 0.24543 0.163171
1156 1 0.065321 0.29186 0.129004
1383 1 0.185682 0.258437 0.138373
1699 1 0.295198 0.297886 0.136866
1294 1 0.374868 0.286545 0.114492
1467 1 0.460899 0.273966 0.143167
1476 1 0.578981 0.27719 0.131079
1993 1 0.648043 0.289051 0.142475
996 1 0.811676 0.271397 0.162488
2006 1 0.188274 0.333826 0.135423
992 1 0.581037 0.347415 0.155841
607 1 0.753121 0.316789 0.160435
793 1 0.995186 0.319766 0.14267
1447 1 0.0407195 0.376575 0.154317
502 1 0.126961 0.386002 0.145766
227 1 0.346128 0.358046 0.136805
244 1 0.738163 0.391388 0.126311
1056 1 0.819172 0.377966 0.117381
678 1 0.886483 0.390134 0.154079
1563 1 0.293357 0.410101 0.11706
187 1 0.400088 0.406539 0.142773
731 1 0.0114889 0.455623 0.114938
615 1 0.267535 0.481205 0.142728
1702 1 0.44903 0.483469 0.147486
538 1 0.68564 0.470411 0.12108
1390 1 0.802427 0.455945 0.140284
1932 1 0.134008 0.507219 0.127488
331 1 0.335513 0.525864 0.133011
1837 1 0.521479 0.505419 0.152874
1546 1 0.632444 0.531235 0.11203
953 1 0.707643 0.52941 0.15779
821 1 0.969893 0.52723 0.134588
1766 1 0.0921027 0.562213 0.111143
89 1 0.185568 0.57991 0.111527
562 1 0.410172 0.554305 0.126169
1389 1 0.597323 0.598583 0.128339
456 1 0.821832 0.583293 0.160015
1952 1 0.889363 0.559203 0.151524
870 1 0.0183555 0.612674 0.138302
1259 1 0.344745 0.604607 0.14842
1000 1 0.7467 0.633035 0.166386
1957 1 0.93704 0.623351 0.145966
1290 1 0.0694884 0.699977 0.135404
517 1 0.337759 0.678566 0.13325
247 1 0.494758 0.680496 0.148087
889 1 0.573808 0.689831 0.140784
605 1 0.642777 0.657441 0.149977
181 1 0.701489 0.686386 0.125416
1723 1 0.800264 0.698187 0.130969
929 1 0.24874 0.71015 0.119212
649 1 0.942689 0.708731 0.154106
419 1 0.381048 0.790621 0.144343
1368 1 0.463277 0.755564 0.113678
1533 1 0.527537 0.759245 0.146018
347 1 0.79871 0.773847 0.122997
1849 1 0.0432426 0.834878 0.150744
1430 1 0.169154 0.805654 0.12824
674 1 0.310965 0.849584 0.158838
430 1 0.435931 0.831414 0.112475
309 1 0.499923 0.849877 0.154526
522 1 0.624289 0.849405 0.157541
625 1 0.729604 0.803569 0.153463
808 1 0.843142 0.835008 0.143069
912 1 0.162783 0.896576 0.148069
782 1 0.403712 0.877583 0.166073
130 1 0.91576 0.857185 0.126679
1370 1 0.0658323 0.940803 0.13258
1776 1 0.298297 0.903779 0.111317
1082 1 0.466573 0.940493 0.160553
320 1 0.531343 0.913358 0.12333
1281 1 0.759626 0.908817 0.148111
1602 1 0.987874 0.90037 0.119871
861 1 0.126978 0.9815 0.133894
1175 1 0.397021 0.957596 0.144524
521 1 0.660828 0.990398 0.163018
434 1 0.956427 0.993788 0.121237
56 1 0.031754 0.0237775 0.216631
1284 1 0.104252 0.0384334 0.194627
576 1 0.885565 0.0259158 0.181831
1842 1 0.344623 0.0666801 0.205301
102 1 0.443193 0.0886097 0.219788
1498 1 0.523431 0.0789174 0.200263
1832 1 0.718497 0.0534056 0.183909
1629 1 0.839267 0.0964252 0.182829
943 1 0.975512 0.079934 0.178813
932 1 0.112322 0.115392 0.19858
1062 1 0.258124 0.149186 0.172654
1146 1 0.571189 0.132196 0.194467
503 1 0.352301 0.189204 0.209364
824 1 0.467629 0.168284 0.212433
118 1 0.618095 0.189248 0.177648
598 1 0.682134 0.174121 0.205433
195 1 0.854672 0.191641 0.169291
893 1 0.916265 0.159052 0.186622
1451 1 0.989418 0.176739 0.187672
281 1 0.133924 0.21415 0.194012
1214 1 0.27275 0.225268 0.207252
358 1 0.428719 0.228436 0.190614
455 1 0.518866 0.226021 0.173804
683 1 0.580739 0.244692 0.216918
1539 1 0.0554922 0.256717 0.220444
1745 1 0.129259 0.283677 0.184036
923 1 0.229943 0.287353 0.188947
1440 1 0.344016 0.258309 0.183379
1991 1 0.700098 0.267574 0.189565
1326 1 0.893501 0.257801 0.187821
264 1 0.094533 0.34684 0.199786
1705 1 0.181394 0.345608 0.207081
438 1 0.408506 0.307451 0.186229
1901 1 0.468765 0.344479 0.169293
1145 1 0.527061 0.305183 0.192509
1691 1 0.672638 0.349389 0.176663
2008 1 0.846843 0.333732 0.180586
536 1 0.929089 0.32404 0.169961
184 1 0.281759 0.361818 0.186089
1572 1 0.366644 0.365042 0.209288
1913 1 0.7431 0.384272 0.200087
68 1 0.203832 0.409659 0.184849
1530 1 0.285555 0.428406 0.217004
47 1 0.463988 0.41483 0.19508
1809 1 0.541141 0.4251 0.183221
1493 1 0.613009 0.407257 0.181281
846 1 0.815382 0.4016 0.195455
1176 1 0.981511 0.417068 0.178962
333 1 0.0278078 0.497831 0.17712
1480 1 0.12476 0.462641 0.190428
1555 1 0.216186 0.490419 0.216327
1166 1 0.350722 0.453712 0.167134
180 1 0.588571 0.481443 0.17784
496 1 0.657702 0.482998 0.209374
156 1 0.724053 0.459801 0.186453
1029 1 0.818118 0.47115 0.209555
728 1 0.928555 0.466939 0.191331
440 1 0.175443 0.538528 0.181215
1930 1 0.311025 0.51619 0.200744
1143 1 0.395241 0.500633 0.198604
1267 1 0.468699 0.548859 0.195068
1295 1 0.775659 0.524548 0.197124
632 1 0.858903 0.532803 0.219154
1046 1 0.0769272 0.573782 0.218733
271 1 0.24567 0.556955 0.168853
919 1 0.588477 0.564838 0.19843
1038 1 0.672271 0.595026 0.203355
774 1 0.978345 0.57201 0.192316
796 1 0.109536 0.618017 0.1763
1327 1 0.267628 0.63935 0.172301
1462 1 0.398406 0.603735 0.214442
1168 1 0.45256 0.619761 0.168851
2010 1 0.538729 0.614468 0.172442
1499 1 0.809203 0.648347 0.208913
1886 1 0.0093705 0.681629 0.171815
925 1 0.346691 0.671151 0.209913
280 1 0.411384 0.698179 0.170226
1477 1 0.60092 0.653783 0.215246
43 1 0.734551 0.69681 0.19507
676 1 0.887138 0.669408 0.180948
340 1 0.132973 0.734428 0.173573
894 1 0.20544 0.716299 0.194437
829 1 0.279456 0.715355 0.202844
1638 1 0.365885 0.747476 0.212435
2022 1 0.541141 0.706898 0.211799
176 1 0.658178 0.725964 0.167706
572 1 0.811392 0.733774 0.198813
1857 1 0.880687 0.745586 0.171863
1375 1 0.0252623 0.753515 0.176958
1996 1 0.242861 0.785114 0.201631
112 1 0.442499 0.779455 0.186282
426 1 0.596268 0.764571 0.18439
94 1 0.688769 0.76901 0.221579
1014 1 0.955397 0.790616 0.175309
1475 1 0.164471 0.81642 0.200372
1748 1 0.0986035 0.877909 0.19482
374 1 0.224716 0.856841 0.18585
1894 1 0.55863 0.877187 0.187218
939 1 0.686262 0.89128 0.168249
866 1 0.764296 0.859109 0.201998
1815 1 0.883534 0.852579 0.200837
776 1 0.954941 0.874621 0.216939
404 1 0.00282743 0.934451 0.18303
825 1 0.232083 0.928537 0.169313
740 1 0.353527 0.929005 0.197835
801 1 0.622752 0.92896 0.192443
654 1 0.691089 0.947439 0.217368
591 1 0.833023 0.906215 0.186254
1470 1 0.0850943 0.95552 0.207949
797 1 0.167577 0.953106 0.1992
963 1 0.266718 0.981487 0.217967
612 1 0.429083 0.978371 0.212199
1624 1 0.524908 0.99334 0.180694
1998 1 0.749532 0.984827 0.18447
2045 1 0.82092 0.985805 0.166752
1969 1 0.928958 0.962257 0.19383
1644 1 0.129757 0.00364233 0.252517
898 1 0.205632 0.0376321 0.241939
803 1 0.487468 0.0248579 0.237156
485 1 0.621818 0.0481634 0.230512
53 1 0.717592 0.0415961 0.264488
1982 1 0.931745 0.0289596 0.240635
115 1 0.0544353 0.0899347 0.242656
76 1 0.266701 0.0984939 0.229339
878 1 0.549611 0.0738184 0.270296
655 1 0.782575 0.0744824 0.227008
1586 1 0.855904 0.0514464 0.242656
1608 1 0.00305765 0.141671 0.263411
765 1 0.193249 0.147863 0.226336
921 1 0.398713 0.12361 0.26562
1765 1 0.672906 0.109059 0.274988
688 1 0.837915 0.121951 0.269935
39 1 0.916913 0.100325 0.228936
1589 1 0.0565887 0.178256 0.227174
1884 1 0.263592 0.167054 0.25409
1911 1 0.438609 0.190187 0.273107
1675 1 0.534556 0.185711 0.250691
1298 1 0.623923 0.178769 0.252053
1080 1 0.746822 0.159385 0.235117
1802 1 0.811941 0.192083 0.233697
394 1 0.00869545 0.218645 0.262914
135 1 0.216805 0.239491 0.277125
1634 1 0.69635 0.219873 0.260739
1921 1 0.899389 0.212404 0.249174
920 1 0.159512 0.295789 0.269715
887 1 0.477678 0.255325 0.262009
844 1 0.64527 0.272743 0.259894
1865 1 0.763029 0.262423 0.23439
1020 1 0.833354 0.275367 0.25621
1550 1 0.977357 0.286264 0.243431
899 1 0.238702 0.311816 0.258545
982 1 0.308046 0.304799 0.228619
860 1 0.378224 0.301491 0.254396
1336 1 0.443869 0.341912 0.241149
1514 1 0.552919 0.300305 0.276223
1015 1 0.696627 0.336672 0.252135
722 1 0.891005 0.336105 0.236955
1195 1 0.0222129 0.355243 0.225893
1955 1 0.135926 0.39405 0.236842
1188 1 0.230415 0.391123 0.251494
1816 1 0.337037 0.364963 0.276817
1258 1 0.550365 0.369446 0.248948
897 1 0.772815 0.367063 0.272083
1926 1 0.948012 0.38751 0.243764
1116 1 0.0640327 0.445391 0.232638
42 1 0.393673 0.428365 0.242476
732 1 0.469921 0.417876 0.270983
70 1 0.607874 0.440721 0.24776
1319 1 0.682287 0.412988 0.246647
315 1 0.757148 0.440711 0.252898
1984 1 0.875249 0.410489 0.2401
1140 1 0.187249 0.453322 0.269427
1915 1 0.357691 0.494773 0.263562
812 1 0.497952 0.483175 0.23848
1677 1 0.0398589 0.51709 0.250371
1282 1 0.136469 0.527015 0.241839
1616 1 0.278971 0.505047 0.269406
567 1 0.412425 0.543515 0.257971
645 1 0.671806 0.517718 0.274566
161 1 0.748041 0.530166 0.27494
877 1 0.934357 0.541305 0.247595
31 1 0.216412 0.566803 0.24073
537 1 0.349996 0.582966 0.268855
371 1 0.511875 0.554809 0.267122
989 1 0.801095 0.576384 0.247009
1973 1 0.00891469 0.61352 0.256975
453 1 0.236846 0.641296 0.243039
1418 1 0.486089 0.627782 0.233932
906 1 0.555299 0.613492 0.273702
1255 1 0.72882 0.604116 0.254146
413 1 0.875507 0.603463 0.245188
752 1 0.0668864 0.659108 0.227249
1806 1 0.151768 0.671284 0.259785
1010 1 0.366004 0.690858 0.276029
1695 1 0.464501 0.698816 0.226464
1455 1 0.670566 0.68622 0.228481
508 1 0.857683 0.672553 0.264263
443 1 0.950435 0.658531 0.227513
956 1 0.0229529 0.711183 0.245531
1646 1 0.0971762 0.722767 0.239019
365 1 0.219841 0.715528 0.276338
1448 1 0.610636 0.748975 0.258055
948 1 0.753116 0.740477 0.261753
350 1 0.919745 0.722563 0.230352
1105 1 0.198514 0.795732 0.275694
1639 1 0.469008 0.792089 0.255487
2036 1 0.83335 0.773432 0.261319
754 1 0.91152 0.795989 0.249688
1910 1 0.992685 0.782126 0.275102
1222 1 0.0239996 0.846106 0.227527
1599 1 0.0947142 0.804785 0.23781
1198 1 0.264323 0.827532 0.276108
1960 1 0.349407 0.829709 0.244486
1946 1 0.559892 0.822526 0.238521
1853 1 0.641022 0.838268 0.235875
125 1 0.714689 0.833728 0.270204
1273 1 0.205785 0.876305 0.275692
230 1 0.286455 0.879413 0.225238
1559 1 0.426868 0.896899 0.242501
298 1 0.496158 0.861996 0.276738
88 1 0.595409 0.897916 0.253782
1908 1 0.784896 0.86866 0.268573
633 1 0.0495849 0.910052 0.262376
1165 1 0.135859 0.911599 0.266545
1278 1 0.495453 0.924216 0.23695
1404 1 0.750657 0.934403 0.256505
304 1 0.84476 0.914259 0.25659
1216 1 0.20757 0.966663 0.273236
903 1 0.355348 0.997567 0.228596
1612 1 0.572834 0.974358 0.234348
1296 1 0.638473 0.964773 0.26952
1551 1 0.814177 0.979251 0.242065
497 1 0.998351 0.962591 0.250201
1387 1 0.0725408 0.0364144 0.290162
477 1 0.423269 0.0066239 0.283771
202 1 0.581214 0.00100232 0.315986
1343 1 0.660723 0.026321 0.3278
40 1 0.813856 0.0374512 0.322309
369 1 0.885781 0.0052758 0.32864
1974 1 0.0197506 0.0912329 0.320581
685 1 0.154461 0.0590023 0.296639
352 1 0.251523 0.0624291 0.291043
876 1 0.360276 0.0621366 0.284931
658 1 0.454704 0.0764477 0.299108
1126 1 0.60883 0.0924706 0.315645
1537 1 0.947427 0.0597897 0.308303
474 1 0.0927479 0.143183 0.282836
1966 1 0.190776 0.123764 0.307849
196 1 0.336868 0.149289 0.29395
505 1 0.758729 0.104385 0.294541
651 1 0.930275 0.147828 0.303241
647 1 0.157654 0.190002 0.299224
2005 1 0.499652 0.171942 0.323886
1374 1 0.602414 0.161868 0.321588
874 1 0.717583 0.16818 0.312226
1676 1 0.788612 0.175356 0.320748
600 1 0.0756313 0.246412 0.295925
1473 1 0.299642 0.237978 0.279859
297 1 0.375453 0.225442 0.302028
577 1 0.658428 0.209645 0.33294
15 1 0.823579 0.243299 0.32209
875 1 0.331877 0.297733 0.315643
662 1 0.760451 0.299294 0.309861
1016 1 0.903211 0.266586 0.300567
302 1 0.996008 0.267707 0.318015
1834 1 0.0302017 0.344394 0.311795
1825 1 0.105869 0.322355 0.318925
855 1 0.264629 0.345188 0.317943
41 1 0.512791 0.348504 0.32444
751 1 0.837646 0.332456 0.302284
171 1 0.935062 0.331392 0.323408
2007 1 0.173738 0.358636 0.302795
1739 1 0.403426 0.395785 0.30462
339 1 0.601689 0.35378 0.305768
1558 1 0.686141 0.376725 0.32449
975 1 0.00884093 0.442762 0.28311
1303 1 0.0805613 0.404331 0.305322
917 1 0.30125 0.418235 0.328178
656 1 0.647594 0.442656 0.329456
1457 1 0.909412 0.401511 0.306568
587 1 0.108505 0.475449 0.288421
838 1 0.363382 0.450652 0.328103
1564 1 0.431428 0.486047 0.308692
1605 1 0.547878 0.482522 0.313348
1557 1 0.715629 0.466944 0.327443
1694 1 0.812692 0.481389 0.289369
1040 1 0.934786 0.474098 0.299167
1613 1 0.0650448 0.52731 0.326391
1484 1 0.143681 0.54205 0.332273
1106 1 0.208589 0.515094 0.306525
439 1 0.370726 0.530167 0.328049
1656 1 0.597557 0.53759 0.284306
999 1 0.862913 0.53766 0.292723
811 1 0.114687 0.597456 0.280482
1021 1 0.286412 0.575519 0.310823
1580 1 0.454151 0.59159 0.310873
1235 1 0.92502 0.595906 0.301845
1679 1 0.0604715 0.607156 0.331134
346 1 0.210672 0.605625 0.301924
1922 1 0.297333 0.648926 0.286309
1684 1 0.629832 0.604639 0.280333
487 1 0.69758 0.640214 0.326677
237 1 0.822624 0.621686 0.309185
12 1 0.0617595 0.676671 0.301072
488 1 0.27638 0.69916 0.33292
1313 1 0.418509 0.659271 0.324617
469 1 0.496508 0.661859 0.312396
1689 1 0.559789 0.692925 0.2795
173 1 0.638589 0.679355 0.293014
1136 1 0.774033 0.66891 0.278129
1435 1 0.966746 0.659327 0.304289
736 1 0.00238242 0.7202 0.323037
327 1 0.0761009 0.747103 0.31143
848 1 0.147298 0.739412 0.301355
354 1 0.441955 0.731149 0.308126
1182 1 0.881473 0.714825 0.326026
150 1 0.295417 0.757611 0.281959
1121 1 0.373038 0.763258 0.301018
1265 1 0.527571 0.758848 0.278267
66 1 0.684353 0.75145 0.292856
266 1 0.776538 0.791028 0.318967
114 1 0.930198 0.767715 0.316586
1787 1 0.0604444 0.823487 0.300232
1125 1 0.134303 0.845721 0.294539
1567 1 0.330948 0.849701 0.318895
1811 1 0.408791 0.82928 0.298732
1615 1 0.478835 0.811946 0.328285
1548 1 0.554069 0.825761 0.332588
1782 1 0.646124 0.83012 0.309215
400 1 0.847137 0.817207 0.323647
254 1 0.888162 0.860845 0.281816
1986 1 0.987281 0.879301 0.285873
379 1 0.272988 0.91891 0.287283
661 1 0.356175 0.923265 0.286176
1826 1 0.437578 0.937106 0.310951
1160 1 0.536842 0.939828 0.298542
916 1 0.62736 0.915435 0.327236
137 1 0.702413 0.906097 0.315442
590 1 0.799712 0.936635 0.311079
1364 1 0.938927 0.9413 0.288693
1773 1 0.0894733 0.958218 0.300328
338 1 0.311711 0.99268 0.290743
777 1 0.718849 0.977704 0.31585
391 1 0.0199121 0.0237248 0.347128
1516 1 0.138016 0.00760242 0.353567
606 1 0.374917 0.0261593 0.375773
1549 1 0.509817 0.0360177 0.3389
29 1 0.766695 0.0420698 0.377015
957 1 0.0594972 0.0770296 0.38349
214 1 0.183292 0.065 0.373907
839 1 0.312352 0.0692018 0.333933
789 1 0.413993 0.0889208 0.369445
5 1 0.666186 0.0928696 0.360886
1251 1 0.129842 0.125787 0.352124
2038 1 0.277315 0.140843 0.343717
1640 1 0.500737 0.106558 0.352259
441 1 0.764562 0.119757 0.371315
493 1 0.84508 0.108806 0.340954
1760 1 0.0130133 0.173499 0.334825
1627 1 0.104737 0.199235 0.35929
1940 1 0.203467 0.190073 0.354618
1266 1 0.359684 0.191311 0.386378
1456 1 0.443153 0.188789 0.364586
608 1 0.68592 0.165502 0.381241
1060 1 0.864082 0.181038 0.336098
1033 1 0.272822 0.216519 0.352067
1138 1 0.733534 0.230742 0.348518
1690 1 0.945566 0.210263 0.350764
880 1 0.0487378 0.267279 0.37343
1650 1 0.141743 0.264409 0.350512
1409 1 0.209754 0.284591 0.348128
1672 1 0.374097 0.262459 0.373176
779 1 0.442003 0.292908 0.347038
16 1 0.516084 0.265492 0.3608
926 1 0.585729 0.272524 0.336848
1731 1 0.672286 0.291638 0.33764
1942 1 0.867206 0.256245 0.382737
275 1 0.293587 0.300559 0.387463
1271 1 0.37881 0.343675 0.35214
411 1 0.718207 0.330487 0.38087
1497 1 0.806524 0.313915 0.36774
1239 1 0.0625316 0.367323 0.377914
286 1 0.230157 0.351029 0.388377
172 1 0.448115 0.367366 0.354955
650 1 0.567582 0.353052 0.371568
604 1 0.771672 0.398625 0.34007
1411 1 0.881492 0.36031 0.366569
1042 1 0.982395 0.393844 0.361662
511 1 0.142341 0.422825 0.343046
780 1 0.229143 0.417494 0.340075
1883 1 0.475102 0.440434 0.345125
1139 1 0.573091 0.426736 0.355725
883 1 0.840408 0.416365 0.349034
1794 1 0.919374 0.446588 0.365626
95 1 0.039836 0.450172 0.355354
872 1 0.305708 0.496359 0.34322
1835 1 0.837524 0.484899 0.364148
151 1 0.245016 0.539813 0.376245
303 1 0.48181 0.533523 0.351935
1505 1 0.582515 0.531234 0.363155
891 1 0.779235 0.521791 0.342503
767 1 0.912178 0.522481 0.364079
1918 1 0.993159 0.508117 0.335608
1643 1 0.537357 0.589146 0.359467
1221 1 0.660452 0.571307 0.340123
1463 1 0.763064 0.591478 0.342326
1579 1 0.834795 0.566796 0.360432
1649 1 0.972504 0.573036 0.362181
228 1 0.162575 0.64825 0.335762
384 1 0.24542 0.636842 0.363377
45 1 0.35354 0.629008 0.335685
1189 1 0.471482 0.619901 0.383071
356 1 0.601488 0.62818 0.341884
1523 1 0.787602 0.647425 0.386425
895 1 0.891144 0.644385 0.344377
1479 1 0.000683552 0.65967 0.377845
1858 1 0.0732293 0.698966 0.371008
1371 1 0.449181 0.690323 0.384065
1317 1 0.609105 0.694058 0.370623
1890 1 0.209717 0.724338 0.353048
798 1 0.536939 0.711613 0.356235
1051 1 0.686494 0.743745 0.371436
560 1 0.749672 0.710834 0.34439
295 1 0.813206 0.74248 0.365783
1379 1 0.087374 0.790348 0.36854
1652 1 0.169207 0.793293 0.351174
160 1 0.242246 0.78919 0.340765
1728 1 0.312788 0.765655 0.359194
1041 1 0.455257 0.767694 0.383128
526 1 0.607907 0.775762 0.345184
1481 1 0.886146 0.774485 0.378072
879 1 0.386851 0.800595 0.382762
1417 1 0.701538 0.843672 0.355862
1036 1 0.924756 0.847775 0.346687
1735 1 0.9946 0.814243 0.347037
1603 1 0.0312069 0.877786 0.354781
900 1 0.103598 0.887603 0.355243
2021 1 0.217459 0.860948 0.354884
459 1 0.284758 0.895309 0.370624
1101 1 0.393167 0.883028 0.348316
381 1 0.616053 0.852121 0.375768
294 1 0.783981 0.865706 0.339174
106 1 0.009402 0.945228 0.342945
702 1 0.190124 0.923675 0.333771
1292 1 0.370563 0.940627 0.383065
1795 1 0.673184 0.907831 0.38775
1225 1 0.744265 0.937246 0.381383
1958 1 0.860879 0.907258 0.347235
689 1 0.940584 0.919255 0.365386
949 1 0.244564 0.993435 0.334785
1560 1 0.305854 0.974824 0.375464
1660 1 0.445874 0.99158 0.36025
850 1 0.602368 0.992344 0.386543
1712 1 0.935367 0.991812 0.386235
716 1 0.150757 0.00950828 0.427935
1030 1 0.250368 0.0267299 0.428062
1833 1 0.475587 0.0492422 0.40946
1905 1 0.256946 0.0918185 0.394425
904 1 0.319106 0.0531109 0.421911
723 1 0.400075 0.0615796 0.441179
54 1 0.549637 0.0684262 0.398478
1829 1 0.62561 0.0820884 0.434375
836 1 0.708518 0.0874723 0.424063
695 1 0.843451 0.0537395 0.395206
451 1 0.919115 0.0780241 0.401704
194 1 0.12761 0.114153 0.424375
2001 1 0.326296 0.123434 0.393761
1820 1 0.382417 0.138349 0.438434
757 1 0.45216 0.114366 0.429111
1325 1 0.611392 0.143263 0.391958
49 1 0.901651 0.142779 0.439153
1667 1 0.963464 0.149708 0.395176
896 1 0.0857176 0.195965 0.436657
1803 1 0.0593254 0.150433 0.389269
775 1 0.165431 0.177416 0.41966
59 1 0.251003 0.165513 0.405631
2040 1 0.503338 0.161933 0.412266
224 1 0.77087 0.163607 0.440275
1528 1 0.843081 0.187101 0.408781
1588 1 0.206288 0.246519 0.415604
1981 1 0.273818 0.229992 0.441134
289 1 0.503678 0.234463 0.426737
892 1 0.563101 0.200855 0.390399
312 1 0.61812 0.216547 0.434632
1903 1 0.675844 0.242027 0.395785
657 1 0.925491 0.229932 0.429668
154 1 0.994833 0.223572 0.402799
431 1 0.13377 0.252805 0.438182
1233 1 0.43177 0.286139 0.426394
714 1 0.616648 0.28659 0.405825
1814 1 0.779013 0.262963 0.416633
1400 1 0.896095 0.298742 0.43558
500 1 0.123601 0.32333 0.392359
566 1 0.484435 0.340275 0.421401
479 1 0.550663 0.310856 0.435079
1450 1 0.759272 0.340716 0.443394
1779 1 0.967763 0.30377 0.3928
931 1 0.0270096 0.387 0.436898
363 1 0.29526 0.386118 0.397862
274 1 0.656666 0.372112 0.415897
955 1 0.842889 0.354994 0.425173
995 1 0.93616 0.385602 0.438138
1032 1 0.0954591 0.435409 0.405011
1994 1 0.179592 0.404414 0.411749
1005 1 0.362282 0.422073 0.39638
1367 1 0.433275 0.407966 0.418051
1054 1 0.50631 0.413677 0.401781
786 1 0.79695 0.411777 0.431717
1928 1 0.874335 0.425872 0.424279
882 1 0.988153 0.443148 0.419017
1487 1 0.195836 0.482565 0.392271
1232 1 0.290106 0.469639 0.406698
659 1 0.416228 0.479534 0.389437
368 1 0.538748 0.481644 0.39469
822 1 0.602257 0.458815 0.436701
124 1 0.670681 0.460408 0.406658
961 1 0.745835 0.458639 0.40112
2027 1 0.794533 0.49619 0.437748
1893 1 0.889384 0.497617 0.4303
1866 1 0.0506115 0.507017 0.432272
437 1 0.116744 0.510822 0.390779
834 1 0.348268 0.535302 0.397228
1666 1 0.631576 0.529002 0.434441
1812 1 0.735711 0.544375 0.432775
1868 1 0.95911 0.520533 0.428955
1076 1 0.0320591 0.595288 0.400999
1899 1 0.168137 0.589293 0.408761
759 1 0.245183 0.59289 0.433729
1252 1 0.414467 0.573955 0.390591
555 1 0.514128 0.587597 0.435825
570 1 0.592819 0.589442 0.417526
1622 1 0.678795 0.592042 0.413858
669 1 0.79848 0.590715 0.438844
450 1 0.897996 0.581859 0.42153
1376 1 0.101879 0.615094 0.40346
86 1 0.312118 0.606652 0.394165
1307 1 0.379589 0.634536 0.41773
18 1 0.324888 0.697029 0.39057
1283 1 0.549572 0.656602 0.437886
1436 1 0.681365 0.671635 0.392781
1536 1 0.85289 0.664051 0.422253
1606 1 0.935512 0.699569 0.417701
1508 1 0.150297 0.725368 0.403634
973 1 0.390118 0.729544 0.410576
1215 1 0.50294 0.712966 0.428291
1163 1 0.768197 0.712328 0.415468
262 1 0.847568 0.743064 0.432739