ITEM: TIMESTEP
100000
ITEM: NUMBER OF ATOMS
2048
ITEM: BOX BOUNDS pp pp pp
0.0000000000000000e+00 1.1950412657485773e+01
0.0000000000000000e+00 1.1950412657485773e+01
0.0000000000000000e+00 1.1950412657485773e+01
ITEM: ATOMS id type xs ys zs
3 1 0.122388 0.0597604 0.0596235
305 1 0.500448 0.0482703 0.0509835
113 1 0.494334 0.366303 0.0101698
250 1 0.740758 0.00981614 0.00519275
32 1 0.874649 0.0615029 0.062036
764 1 0.749274 0.93224 0.308962
12 1 0.187379 0.102746 0.0651617
43 1 0.302146 0.122905 0.0656762
178 1 0.577049 0.684475 0.00733442
531 1 0.561936 0.00701681 0.313845
4 1 0.941809 0.140106 0.0643163
34 1 0.125123 0.194128 0.0545826
44 1 0.24197 0.200492 0.0576937
48 1 0.369675 0.183902 0.0554681
145 1 0.504537 0.508877 0.0145756
69 1 0.0780421 0.310706 0.00629036
60 1 0.747771 0.188124 0.0650907
320 1 0.870474 0.188842 0.0713001
325 1 0.187738 0.266926 0.0665876
71 1 0.317117 0.252796 0.0626721
80 1 0.44205 0.247056 0.0752529
70 1 0.195882 0.327714 0.0109046
182 1 0.686403 0.679765 0.00335048
88 1 0.611708 0.320728 0.0481781
92 1 0.753563 0.304358 0.068238
65 1 0.00283892 0.266728 0.0079907
217 1 0.74754 0.733215 -0.00013153
146 1 0.569842 0.560459 0.0128268
230 1 0.183761 0.935482 -5.26724e-05
181 1 0.63437 0.621658 0.0020018
114 1 0.564732 0.448715 0.0135347
161 1 0.998714 0.62831 0.00119151
120 1 0.619726 0.438387 0.071063
73 1 0.250366 0.262444 0.0130203
108 1 0.250177 0.447322 0.052683
46 1 0.437546 0.196968 0.0110179
125 1 0.864455 0.378639 0.00079161
213 1 0.62762 0.747785 0.00516396
857 1 0.745021 0.17721 0.315136
53 1 0.628197 0.127714 0.00640554
121 1 0.747441 0.382508 -0.000421688
202 1 0.313698 0.795198 0.0024759
623 1 0.436026 0.361286 0.314796
767 1 0.943998 0.874461 0.303854
117 1 0.62276 0.384865 0.00211386
167 1 0.190853 0.609067 0.0661888
520 1 0.119659 0.0620462 0.306264
234 1 0.301631 0.937275 0.00805604
696 1 0.618442 0.676954 0.313473
763 1 0.815504 0.867328 0.304847
739 1 0.0615588 0.869506 0.305939
740 1 0.00183383 0.931016 0.311585
759 1 0.691418 0.870853 0.313315
188 1 0.746227 0.681368 0.0703681
768 1 0.878495 0.941392 0.313865
189 1 0.874035 0.631366 0.00250794
736 1 0.877559 0.821593 0.310152
744 1 0.121657 0.926148 0.307194
760 1 0.628687 0.931396 0.317932
101 1 0.122006 0.377229 0.00577797
732 1 0.754691 0.812426 0.314828
755 1 0.563027 0.870265 0.314471
751 1 0.444257 0.879721 0.318097
523 1 0.30878 -0.000260555 0.304313
583 1 0.180358 0.251535 0.317398
708 1 0.999753 0.806863 0.313994
224 1 0.884025 0.808879 0.0647138
756 1 0.495367 0.947317 0.329359
746 1 0.308259 0.872922 0.305046
579 1 0.0670351 0.242635 0.308475
243 1 0.564337 0.86242 0.0604826
752 1 0.365869 0.939617 0.309784
519 1 0.194821 0.00632697 0.308289
515 1 0.0626434 0.990023 0.308187
54 1 0.692403 0.187812 0.00337326
748 1 0.25384 0.939605 0.311227
244 1 0.505703 0.928889 0.054354
20 1 0.444175 0.983568 0.0535375
31 1 0.952948 0.988975 0.0569719
11 1 0.252005 0.0570112 0.0603809
16 1 0.389063 0.0504286 0.0596761
24 1 0.625986 0.0631954 0.0566653
28 1 0.749976 0.0666144 0.0675552
2 1 0.00632746 0.051811 0.058196
35 1 0.0687137 0.12411 0.0576642
39 1 0.120542 0.120345 0.129457
47 1 0.444698 0.108197 0.0704287
51 1 0.562873 0.112902 0.0587245
55 1 0.684931 0.123568 0.0676728
313 1 0.747178 0.127631 0.119969
59 1 0.809146 0.132912 0.0665879
52 1 0.492932 0.176213 0.0665898
50 1 0.612915 0.185746 0.0745465
314 1 0.818048 0.186127 0.128056
36 1 0.00642608 0.193434 0.0486441
66 1 0.0585609 0.25097 0.0698513
83 1 0.55806 0.253677 0.051054
341 1 0.688137 0.24586 0.0707097
91 1 0.80716 0.242919 0.0737197
95 1 0.935839 0.234091 0.0557987
68 1 0.994857 0.319046 0.0697016
72 1 0.127728 0.32043 0.0635819
76 1 0.259589 0.330066 0.0618551
75 1 0.36545 0.322973 0.0647585
84 1 0.498195 0.308443 0.0765719
96 1 0.875251 0.313749 0.0615845
99 1 0.0587223 0.369537 0.0588065
103 1 0.179689 0.400699 0.0572404
107 1 0.314891 0.393891 0.0548265
111 1 0.432937 0.371786 0.0801611
115 1 0.559932 0.38279 0.0567428
119 1 0.685966 0.3788 0.0600015
123 1 0.807177 0.385226 0.0589096
127 1 0.935639 0.376661 0.0746521
100 1 0.0025151 0.440451 0.0450159
104 1 0.115401 0.450623 0.0494852
112 1 0.390935 0.442484 0.0709608
116 1 0.499791 0.429042 0.0719282
124 1 0.743818 0.440843 0.0733299
128 1 0.878473 0.43174 0.0634564
135 1 0.190015 0.500974 0.0702332
143 1 0.448913 0.503136 0.0731024
147 1 0.5604 0.494116 0.0792
151 1 0.69086 0.502505 0.0812104
155 1 0.803424 0.500143 0.0596163
131 1 0.0628851 0.51253 0.0534711
140 1 0.252406 0.562953 0.080282
139 1 0.313194 0.500318 0.0699665
159 1 0.942611 0.497963 0.0614327
132 1 0.997409 0.56627 0.0570283
136 1 0.118685 0.565521 0.0620474
144 1 0.382457 0.555692 0.0790704
148 1 0.502657 0.563267 0.0751613
152 1 0.621381 0.554715 0.0754821
156 1 0.746791 0.569084 0.0615398
160 1 0.870992 0.562751 0.0578103
417 1 0.934221 0.617742 0.0557751
130 1 0.0578045 0.623396 0.0566551
171 1 0.311278 0.619322 0.0703168
175 1 0.433077 0.613901 0.0715867
179 1 0.555592 0.62532 0.0572156
183 1 0.687088 0.627188 0.0710582
187 1 0.815952 0.620987 0.0703822
191 1 0.0019122 0.679309 0.06519
168 1 0.127121 0.677797 0.0649002
172 1 0.256323 0.676253 0.0646596
176 1 0.373845 0.680972 0.0711964
180 1 0.499786 0.687244 0.0619581
184 1 0.632813 0.684437 0.0682078
477 1 0.87266 0.68238 0.0663013
195 1 0.0717014 0.742143 0.0572405
199 1 0.194091 0.734008 0.0517571
203 1 0.311518 0.738447 0.0609723
207 1 0.434557 0.740485 0.0646211
211 1 0.556514 0.749074 0.0557727
215 1 0.692951 0.744005 0.061491
219 1 0.814267 0.745044 0.0561231
164 1 0.940638 0.741137 0.057973
196 1 0.00824148 0.809822 0.0547787
200 1 0.127034 0.801576 0.0497492
204 1 0.245087 0.800244 0.054745
208 1 0.379138 0.80817 0.0555255
212 1 0.493852 0.807928 0.064667
216 1 0.629375 0.796863 0.0698331
220 1 0.757127 0.803884 0.0616249
227 1 0.0685833 0.865531 0.0559463
231 1 0.174376 0.866449 0.0578848
235 1 0.314841 0.867455 0.051611
239 1 0.44241 0.877833 0.0533788
497 1 0.503893 0.870095 0.126666
247 1 0.691559 0.867733 0.0639612
256 1 0.816975 0.872168 0.0544228
255 1 0.935655 0.869854 0.0527415
232 1 0.118048 0.930717 0.0537514
236 1 0.236408 0.936015 0.0595151
248 1 0.619853 0.922321 0.0586754
252 1 0.747834 0.933003 0.0625116
510 1 0.879945 0.933986 0.0540223
228 1 0.00887191 0.923902 0.0500969
226 1 0.0573832 0.990724 0.0570832
7 1 0.181958 0.0029727 0.0517072
240 1 0.312895 0.00364615 0.0584414
15 1 0.379125 0.931632 0.0482591
19 1 0.568153 0.991118 0.0613178
23 1 0.686696 0.998019 0.0670612
27 1 0.808999 1.00021 0.0588779
269 1 0.370258 0.995855 0.12027
274 1 0.571658 0.0538889 0.132401
242 1 0.62344 0.995923 0.121785
278 1 0.69273 0.062292 0.124187
258 1 0.0511859 0.0555475 0.119359
262 1 0.177096 0.0457143 0.121648
266 1 0.300723 0.0674144 0.125064
270 1 0.443798 0.0462113 0.125329
282 1 0.813694 0.0638448 0.119584
286 1 0.941362 0.0671315 0.116693
297 1 0.244698 0.130948 0.120704
301 1 0.367411 0.122972 0.116373
308 1 0.503697 0.119441 0.128047
56 1 0.625865 0.11791 0.119373
317 1 0.872765 0.121201 0.128024
289 1 0.00514661 0.132301 0.13132
67 1 0.069006 0.183981 0.124373
1831 1 0.179937 0.18828 0.114524
298 1 0.307539 0.186843 0.113525
302 1 0.439847 0.190505 0.128492
306 1 0.552976 0.181264 0.126599
310 1 0.686595 0.186346 0.125817
318 1 0.931822 0.191697 0.134496
323 1 0.123212 0.24555 0.122172
329 1 0.254485 0.258169 0.112597
333 1 0.378464 0.246385 0.127029
79 1 0.508025 0.248073 0.133579
312 1 0.619614 0.259288 0.111593
345 1 0.750415 0.236095 0.131683
349 1 0.879196 0.252138 0.120945
321 1 0.98489 0.249636 0.118809
322 1 0.064112 0.312442 0.125096
326 1 0.195187 0.308414 0.13593
330 1 0.317747 0.306996 0.12676
334 1 0.440114 0.296766 0.135636
338 1 0.561165 0.316493 0.131949
342 1 0.698138 0.307509 0.12285
346 1 0.811189 0.309314 0.125497
350 1 0.933863 0.320545 0.131927
357 1 0.121678 0.380229 0.121759
363 1 0.243919 0.3879 0.121453
365 1 0.369672 0.37869 0.130291
369 1 0.504102 0.38209 0.131937
373 1 0.633155 0.370739 0.129364
377 1 0.762181 0.372422 0.126878
381 1 0.868364 0.37109 0.117893
353 1 0.00976621 0.375071 0.122403
354 1 0.0655747 0.441251 0.121629
358 1 0.179729 0.443899 0.132943
362 1 0.319519 0.442605 0.131632
366 1 0.436024 0.428353 0.141611
370 1 0.566292 0.437081 0.138117
374 1 0.683714 0.432513 0.134521
378 1 0.815169 0.434845 0.120097
382 1 0.944907 0.445833 0.120968
389 1 0.118183 0.498742 0.125446
393 1 0.248247 0.495177 0.129507
401 1 0.501559 0.495588 0.142433
409 1 0.753098 0.522933 0.129544
413 1 0.878144 0.49775 0.122512
385 1 0.00436023 0.496728 0.116002
390 1 0.184234 0.558764 0.129927
397 1 0.381899 0.49535 0.133313
402 1 0.559226 0.555552 0.136528
405 1 0.628437 0.503457 0.138332
386 1 0.0601314 0.556193 0.117963
394 1 0.318379 0.569571 0.135531
398 1 0.438698 0.556932 0.137655
406 1 0.684037 0.565246 0.134113
410 1 0.824285 0.561671 0.129519
414 1 0.936847 0.550184 0.128223
163 1 0.990643 0.620527 0.118118
421 1 0.124397 0.61982 0.136753
425 1 0.254019 0.624557 0.13073
429 1 0.3737 0.627151 0.129096
433 1 0.490165 0.634154 0.123991
437 1 0.626852 0.624837 0.125417
441 1 0.741045 0.637495 0.138188
445 1 0.86813 0.628776 0.146918
418 1 0.0715637 0.695206 0.122485
422 1 0.187454 0.669849 0.128768
426 1 0.319749 0.686133 0.124437
430 1 0.44255 0.697949 0.132047
434 1 0.562181 0.685344 0.117848
438 1 0.681065 0.687421 0.136518
442 1 0.809112 0.687549 0.130104
446 1 0.939874 0.685994 0.12128
449 1 0.00944603 0.754592 0.117084
453 1 0.134316 0.748913 0.121373
457 1 0.244079 0.748587 0.127261
461 1 0.380775 0.750287 0.131282
465 1 0.516603 0.750553 0.127145
469 1 0.617573 0.737889 0.129914
473 1 0.752585 0.746064 0.120625
223 1 0.869539 0.753105 0.129783
450 1 0.0707013 0.802291 0.127797
454 1 0.187559 0.811366 0.119826
458 1 0.326657 0.814693 0.122544
462 1 0.436351 0.814378 0.124195
466 1 0.56661 0.818802 0.129865
471 1 0.701666 0.81328 0.124448
474 1 0.818378 0.812784 0.126863
478 1 0.943764 0.795855 0.122191
485 1 0.122437 0.870573 0.115218
489 1 0.254386 0.868437 0.115589
493 1 0.370825 0.88456 0.115522
501 1 0.632072 0.868249 0.116931
470 1 0.755568 0.874112 0.122456
505 1 0.880689 0.880545 0.119353
481 1 0.00434175 0.861089 0.119976
482 1 0.0615227 0.919826 0.115883
486 1 0.177031 0.93444 0.120922
490 1 0.305433 0.936309 0.119414
494 1 0.439471 0.922394 0.118109
498 1 0.570743 0.929097 0.125497
502 1 0.690135 0.936721 0.124842
506 1 0.818054 0.925908 0.116118
509 1 0.951031 0.929099 0.117307
261 1 0.111981 1.00004 0.122365
265 1 0.239916 0.995282 0.12472
273 1 0.508462 0.994355 0.129258
281 1 0.75409 0.99524 0.122011
285 1 0.870564 0.99793 0.105807
257 1 0.00527504 0.992407 0.121385
288 1 0.882416 0.0522792 0.176803
260 1 0.989725 0.0724993 0.185649
264 1 0.123547 0.0600492 0.186949
268 1 0.230018 0.0690497 0.17673
272 1 0.36729 0.0610259 0.172991
276 1 0.507743 0.0617469 0.186648
309 1 0.634065 0.0675577 0.185542
279 1 0.746298 0.0483339 0.183431
291 1 0.0621947 0.113277 0.190342
295 1 0.175604 0.134831 0.189606
299 1 0.293086 0.118865 0.183348
303 1 0.435406 0.109799 0.174556
307 1 0.564441 0.120165 0.183162
284 1 0.694389 0.126191 0.188172
315 1 0.819041 0.118689 0.187444
319 1 0.932471 0.126273 0.198919
292 1 0.00444782 0.189453 0.19048
296 1 0.110491 0.185697 0.193665
300 1 0.252963 0.1914 0.179309
304 1 0.377858 0.174232 0.184721
337 1 0.503403 0.172456 0.193053
569 1 0.627733 0.18059 0.182819
316 1 0.765573 0.181472 0.192749
573 1 0.878965 0.189965 0.199151
293 1 0.06267 0.251365 0.179168
294 1 0.187248 0.239752 0.186343
331 1 0.320386 0.244762 0.184644
590 1 0.434557 0.241453 0.193194
311 1 0.564626 0.234668 0.193215
343 1 0.692544 0.231977 0.189916
347 1 0.813224 0.248175 0.191862
351 1 0.937782 0.252064 0.189533
328 1 0.123589 0.305118 0.179236
332 1 0.261119 0.30837 0.182085
336 1 0.379975 0.315948 0.183557
339 1 0.501372 0.310613 0.190278
344 1 0.622415 0.297307 0.184031
348 1 0.75244 0.31657 0.191955
352 1 0.87419 0.315677 0.184761
324 1 0.999441 0.314295 0.183922
355 1 0.065759 0.364917 0.185073
359 1 0.185677 0.372305 0.185279
367 1 0.314376 0.375616 0.194188
340 1 0.436225 0.372456 0.202458
371 1 0.575704 0.367991 0.191038
375 1 0.689677 0.369924 0.191193
379 1 0.816689 0.375387 0.19168
383 1 0.935124 0.375753 0.188512
356 1 0.00902267 0.435247 0.171462
360 1 0.12893 0.432393 0.191943
364 1 0.251317 0.425891 0.193693
368 1 0.370773 0.431669 0.193131
372 1 0.495918 0.433526 0.196521
376 1 0.625703 0.433209 0.199654
380 1 0.746413 0.432334 0.188516
384 1 0.87468 0.433685 0.182864
387 1 0.0686583 0.489426 0.189879
391 1 0.183094 0.497672 0.192702
395 1 0.32053 0.50697 0.18529
399 1 0.441302 0.492718 0.19878
403 1 0.559428 0.494477 0.199617
407 1 0.688908 0.49391 0.196029
411 1 0.830269 0.502741 0.186299
415 1 0.938845 0.497626 0.190267
388 1 0.997342 0.562643 0.191389
412 1 0.747216 0.571257 0.198619
392 1 0.123116 0.550116 0.194305
396 1 0.248524 0.559196 0.185255
400 1 0.372581 0.570112 0.200779
404 1 0.491335 0.568202 0.201022
435 1 0.549827 0.629075 0.179037
408 1 0.613644 0.567953 0.190154
416 1 0.885434 0.558672 0.192649
419 1 0.0612422 0.611372 0.195181
423 1 0.176942 0.615391 0.197951
427 1 0.313265 0.62701 0.191857
431 1 0.437851 0.629627 0.19508
662 1 0.678641 0.622164 0.191077
443 1 0.805526 0.6345 0.201153
447 1 0.93033 0.63362 0.197693
420 1 0.00859059 0.688325 0.171766
424 1 0.119253 0.681524 0.18935
428 1 0.251553 0.678008 0.187939
432 1 0.375774 0.688022 0.193528
436 1 0.497237 0.692255 0.193147
440 1 0.614342 0.682593 0.19043
444 1 0.744533 0.701856 0.189428
448 1 0.8757 0.692054 0.195536
451 1 0.0564511 0.748239 0.188591
455 1 0.185714 0.737851 0.191139
459 1 0.302377 0.759017 0.182682
463 1 0.435325 0.745603 0.191706
467 1 0.558395 0.747688 0.194234
439 1 0.684128 0.756142 0.177453
475 1 0.810348 0.756647 0.192634
479 1 0.936996 0.742414 0.184328
456 1 0.120597 0.807684 0.190337
460 1 0.243624 0.818208 0.179104
464 1 0.370211 0.809669 0.193087
468 1 0.500241 0.812807 0.182564
472 1 0.620305 0.811656 0.18804
476 1 0.755849 0.814645 0.181092
480 1 0.89148 0.816491 0.182514
452 1 0.995215 0.801186 0.186071
483 1 0.0649638 0.870431 0.191914
487 1 0.174069 0.86963 0.183339
491 1 0.312197 0.871252 0.189822
495 1 0.420477 0.873711 0.184344
499 1 0.571869 0.878854 0.18651
503 1 0.689208 0.872986 0.180971
507 1 0.831831 0.872324 0.185069
511 1 0.942975 0.876045 0.180468
488 1 0.117606 0.931523 0.185424
492 1 0.232217 0.926468 0.174727
500 1 0.485579 0.929259 0.185786
504 1 0.628515 0.938461 0.186317
508 1 0.752767 0.933316 0.177681
512 1 0.891294 0.937763 0.181066
484 1 0.00863306 0.935889 0.182613
259 1 0.0570676 0.00380096 0.187236
263 1 0.173037 0.989491 0.178533
267 1 0.296013 0.996292 0.185168
496 1 0.371703 0.939355 0.188449
271 1 0.442271 0.995747 0.189087
275 1 0.565231 0.99334 0.188085
277 1 0.683771 0.997404 0.178483
283 1 0.818846 0.00215231 0.181106
287 1 0.948193 0.00377292 0.177004
778 1 0.24269 0.98821 0.247301
280 1 0.750406 0.987608 0.24185
538 1 0.812031 0.0576344 0.236882
542 1 0.922987 0.0607899 0.246734
514 1 0.0577087 0.0609726 0.247647
518 1 0.185757 0.059744 0.244577
522 1 0.303299 0.0583169 0.240066
526 1 0.441142 0.0567146 0.24244
530 1 0.576636 0.0489428 0.243919
534 1 0.690514 0.0480792 0.245178
572 1 0.759349 0.117638 0.241654
545 1 0.00249486 0.126625 0.240375
549 1 0.12895 0.119227 0.253606
553 1 0.238397 0.120634 0.254099
557 1 0.369806 0.108262 0.242209
561 1 0.494502 0.115123 0.245822
536 1 0.634554 0.120989 0.24595
539 1 0.868257 0.119982 0.250878
546 1 0.061959 0.179284 0.2556
327 1 0.192372 0.1871 0.249088
550 1 0.299412 0.187694 0.246474
335 1 0.431345 0.176004 0.243099
564 1 0.562103 0.168302 0.253002
566 1 0.68264 0.177634 0.251082
570 1 0.810409 0.176688 0.263106
574 1 0.940269 0.18757 0.247285
577 1 0.00454599 0.249468 0.254043
581 1 0.132809 0.244924 0.248766
290 1 0.248574 0.256435 0.264737
554 1 0.37924 0.238587 0.248756
593 1 0.500468 0.231022 0.255298
597 1 0.633828 0.24247 0.249942
601 1 0.749583 0.248667 0.255369
605 1 0.873433 0.248646 0.25091
578 1 0.065597 0.30816 0.243099
582 1 0.196365 0.314685 0.244078
586 1 0.322762 0.300517 0.241327
589 1 0.446204 0.301515 0.249187
594 1 0.574013 0.307885 0.249596
598 1 0.693057 0.303295 0.239727
602 1 0.821211 0.310435 0.251924
606 1 0.931501 0.311168 0.245002
609 1 0.000894609 0.381018 0.239627
613 1 0.123869 0.365101 0.244682
361 1 0.249616 0.37214 0.259192
621 1 0.37186 0.370317 0.25195
625 1 0.504013 0.366343 0.263222
629 1 0.635691 0.370514 0.254987
633 1 0.751305 0.378662 0.248827
637 1 0.876295 0.371856 0.250278
610 1 0.0701075 0.423201 0.238912
614 1 0.194798 0.436646 0.248647
617 1 0.314597 0.438156 0.253539
622 1 0.445231 0.431442 0.255549
626 1 0.568515 0.441047 0.264857
630 1 0.68625 0.43209 0.249902
634 1 0.814447 0.434782 0.253739
638 1 0.936542 0.426587 0.256949
641 1 0.991906 0.500394 0.25288
645 1 0.125522 0.485027 0.253633
649 1 0.255598 0.492145 0.240589
653 1 0.36551 0.504797 0.253672
657 1 0.501152 0.493154 0.25418
659 1 0.621337 0.49922 0.260506
665 1 0.75168 0.489643 0.248953
642 1 0.0563002 0.545022 0.254931
646 1 0.193846 0.566217 0.262939
654 1 0.425625 0.564174 0.25738
661 1 0.683124 0.558471 0.245139
669 1 0.878605 0.47876 0.244356
650 1 0.302315 0.566875 0.243981
658 1 0.559736 0.567319 0.25374
666 1 0.805824 0.556784 0.24909
670 1 0.945392 0.572735 0.252347
677 1 0.117522 0.608274 0.257403
681 1 0.253616 0.626743 0.247496
685 1 0.381207 0.633028 0.259679
689 1 0.501312 0.627047 0.258771
693 1 0.623462 0.623038 0.250565
697 1 0.736582 0.634005 0.244977
701 1 0.868083 0.62081 0.248644
673 1 0.997851 0.636292 0.248382
674 1 0.0625755 0.689969 0.247704
678 1 0.185776 0.681514 0.248283
682 1 0.319352 0.694783 0.249545
686 1 0.44139 0.690505 0.258518
690 1 0.563268 0.68305 0.251304
694 1 0.685585 0.69562 0.248458
698 1 0.819216 0.693441 0.260492
702 1 0.938761 0.69172 0.260476
705 1 1.00052 0.748815 0.2567
709 1 0.129223 0.738218 0.255461
711 1 0.251686 0.734252 0.247728
717 1 0.372085 0.754568 0.256813
721 1 0.495852 0.752493 0.248809
725 1 0.614711 0.745244 0.250083
729 1 0.746068 0.751495 0.250907
733 1 0.880929 0.757708 0.261046
706 1 0.0625209 0.804453 0.251595
710 1 0.185322 0.802957 0.244948
713 1 0.311459 0.81088 0.249445
718 1 0.434037 0.806765 0.247961
722 1 0.561437 0.812265 0.249493
726 1 0.678605 0.806781 0.244564
730 1 0.829326 0.814669 0.245165
734 1 0.938983 0.809643 0.25449
737 1 0.00111684 0.863479 0.251061
741 1 0.123628 0.868827 0.2523
745 1 0.249349 0.872846 0.25307
749 1 0.378854 0.871701 0.260445
753 1 0.496494 0.863412 0.246551
757 1 0.630112 0.874527 0.245026
761 1 0.750782 0.872792 0.236329
765 1 0.883457 0.874978 0.25153
738 1 0.0606906 0.939452 0.244768
742 1 0.187234 0.921864 0.247566
521 1 0.303011 0.940444 0.247396
750 1 0.430654 0.932412 0.24611
754 1 0.548176 0.928735 0.242458
758 1 0.691632 0.934331 0.246843
762 1 0.813816 0.929229 0.239015
766 1 0.946652 0.93279 0.239237
517 1 0.114196 0.00121677 0.245959
525 1 0.380511 0.00271 0.240753
529 1 0.504049 -0.000434506 0.251454
533 1 0.62776 0.98761 0.251565
541 1 0.868549 0.990142 0.244615
513 1 1.00055 0.996519 0.244603
648 1 0.12528 0.546335 0.315674
524 1 0.255915 0.0615816 0.318182
527 1 0.42504 1.07558e-05 0.30999
535 1 0.691222 0.990113 0.314066
537 1 0.805128 0.993981 0.316243
543 1 0.938361 0.994423 0.302128
528 1 0.367591 0.057859 0.307373
532 1 0.494575 0.0630914 0.307501
786 1 0.627951 0.050371 0.314169
540 1 0.747672 0.0514207 0.313118
544 1 0.87009 0.0406415 0.309543
516 1 2.70398e-05 0.0503811 0.318413
547 1 0.0635136 0.126279 0.314539
551 1 0.181926 0.120273 0.315095
142 1 0.436727 0.559125 0.0118777
559 1 0.426224 0.118014 0.304407
562 1 0.567882 0.106575 0.322535
567 1 0.682325 0.120249 0.313325
571 1 0.806437 0.100826 0.307688
575 1 0.923566 0.112079 0.312061
548 1 0.00080603 0.184185 0.319203
552 1 0.132186 0.187984 0.312559
728 1 0.620586 0.810946 0.305871
585 1 0.367507 0.173961 0.2943
558 1 0.503981 0.170852 0.313751
568 1 0.618268 0.168143 0.313001
63 1 0.00514534 0.116392 0.00743854
576 1 0.872084 0.180471 0.324934
724 1 0.502397 0.807854 0.306737
676 1 0.00334479 0.687822 0.316604
587 1 0.318463 0.242587 0.302368
591 1 0.451894 0.231934 0.322314
595 1 0.574082 0.240952 0.300326
599 1 0.686424 0.237767 0.317006
603 1 0.812706 0.237508 0.311927
607 1 0.939127 0.249914 0.301607
45 1 0.386831 0.113778 0.00799584
584 1 0.123813 0.311954 0.306062
588 1 0.250591 0.313774 0.320282
592 1 0.391893 0.296308 0.310243
596 1 0.49937 0.29597 0.31466
600 1 0.628852 0.305089 0.305892
604 1 0.766178 0.305736 0.307978
608 1 0.875158 0.307454 0.314342
611 1 0.0585889 0.372547 0.311332
615 1 0.189923 0.369193 0.315246
619 1 0.316732 0.371454 0.311471
743 1 0.192186 0.867202 0.31385
627 1 0.570059 0.365536 0.322972
631 1 0.694428 0.357623 0.307215
635 1 0.814761 0.375833 0.312104
639 1 0.935603 0.36179 0.311653
612 1 0.998545 0.426667 0.310351
620 1 0.250459 0.430036 0.315424
624 1 0.37887 0.432845 0.308262
628 1 0.500827 0.448925 0.318827
632 1 0.627312 0.430013 0.313839
636 1 0.748383 0.433608 0.312449
640 1 0.874786 0.432326 0.30969
616 1 0.119981 0.43432 0.315439
647 1 0.195476 0.493983 0.304884
618 1 0.308267 0.50014 0.312075
655 1 0.432412 0.492735 0.304934
882 1 0.55525 0.509703 0.311261
917 1 0.69413 0.502124 0.303641
667 1 0.806347 0.501131 0.31011
671 1 0.936831 0.494352 0.316207
643 1 0.0585424 0.483636 0.310496
221 1 0.879129 0.74281 0.000342925
660 1 0.49022 0.558148 0.312949
644 1 0.989103 0.561898 0.318926
652 1 0.261298 0.566512 0.308858
656 1 0.371351 0.571623 0.316303
664 1 0.626451 0.558839 0.321506
668 1 0.737346 0.567776 0.302711
672 1 0.876597 0.56515 0.311955
675 1 0.0552585 0.605349 0.308544
679 1 0.19405 0.630424 0.316169
683 1 0.318713 0.638213 0.316374
910 1 0.437694 0.633426 0.319106
691 1 0.554616 0.621433 0.313642
695 1 0.679807 0.623103 0.323126
699 1 0.802156 0.619626 0.300989
703 1 0.939576 0.629065 0.316026
170 1 0.318852 0.671966 0.00928549
680 1 0.122847 0.680741 0.308129
684 1 0.2544 0.684624 0.321223
688 1 0.377003 0.699094 0.315326
89 1 0.753053 0.245067 0.00842151
174 1 0.440874 0.674663 0.000407845
700 1 0.747504 0.691647 0.303013
704 1 0.876812 0.692036 0.318226
707 1 0.0696587 0.745997 0.316067
969 1 0.195927 0.744933 0.309849
715 1 0.30998 0.74385 0.313552
687 1 0.440839 0.756907 0.307931
723 1 0.563876 0.745282 0.310354
727 1 0.674277 0.748325 0.30819
731 1 0.804846 0.749227 0.314993
961 1 0.932775 0.750963 0.320352
712 1 0.125916 0.804952 0.307042
716 1 0.247336 0.807722 0.301443
720 1 0.367694 0.812838 0.314133
556 1 0.244242 0.18058 0.323192
169 1 0.255484 0.60563 0.0110279
149 1 0.630259 0.502436 0.00436139
87 1 0.69494 0.309168 0.00997745
580 1 0.00111036 0.309114 0.315085
37 1 0.133727 0.124464 0.00459621
692 1 0.498659 0.689473 0.314827
85 1 0.628039 0.245789 0.0108223
61 1 0.87609 0.12819 0.0121686
555 1 0.30355 0.124637 0.313742
141 1 0.389112 0.495054 0.00700974
210 1 0.563852 0.803624 0.000820563
94 1 0.928347 0.324023 0.00165712
1812 1 0.496076 0.120876 0.00227455
173 1 0.372007 0.612029 0.0166822
249 1 0.750092 0.874101 0.00304546
26 1 0.817487 0.0657143 0.00841728
90 1 0.808794 0.316695 0.0153439
246 1 0.680093 0.939951 0.00848976
109 1 0.378916 0.378552 0.00551163
110 1 0.451429 0.446316 0.00847969
177 1 0.50086 0.614844 0.00127834
138 1 0.315936 0.55145 0.00492261
49 1 0.563409 0.179761 0.000223604
21 1 0.622856 0.996154 0.000338535
209 1 0.496273 0.742205 0.00322893
2040 1 0.566726 0.918856 0.000529881
233 1 0.239748 0.880349 0.0055179
93 1 0.860832 0.24654 0.014958
245 1 0.636364 0.858431 0.0055099
30 1 0.951178 0.055487 0.00689779
64 1 0.803716 0.18598 0.0104209
118 1 0.686651 0.43849 0.00100974
126 1 0.930443 0.432802 0.00171897
29 1 0.875566 0.99833 0.00275937
214 1 0.701179 0.798762 0.00277504
13 1 0.370061 0.995414 0.000156709
769 1 0.014266 0.994816 0.380498
770 1 0.0684533 0.0538349 0.369532
1002 1 0.359317 0.00457392 0.371376
793 1 0.752552 0.988609 0.378918
797 1 0.872269 0.990395 0.381693
774 1 0.184381 0.0588634 0.365919
782 1 0.317329 0.0701093 0.373662
781 1 0.433262 0.0594026 0.369549
785 1 0.573344 0.0528016 0.383325
790 1 0.684199 0.0518169 0.373366
794 1 0.811007 0.0524344 0.374891
798 1 0.928449 0.0506896 0.370084
805 1 0.123197 0.118886 0.369619
809 1 0.240583 0.119189 0.376499
813 1 0.371938 0.130327 0.366245
565 1 0.508133 0.1204 0.374908
821 1 0.628649 0.124594 0.378276
825 1 0.751676 0.110295 0.369514
829 1 0.876582 0.122005 0.38756
801 1 0.985793 0.112267 0.366665
802 1 0.0667103 0.188067 0.371852
806 1 0.185134 0.196374 0.379223
810 1 0.316138 0.188488 0.369791
814 1 0.440394 0.174732 0.375322
818 1 0.557188 0.181251 0.373511
822 1 0.69666 0.179629 0.376044
826 1 0.814396 0.193335 0.384308
830 1 0.93832 0.184345 0.380076
833 1 0.00537532 0.242489 0.374045
837 1 0.12124 0.257643 0.382171
841 1 0.247913 0.24614 0.383558
560 1 0.380195 0.234924 0.362651
849 1 0.490721 0.240656 0.390193
853 1 0.625528 0.232198 0.382709
855 1 0.751085 0.239629 0.365863
861 1 0.877049 0.249771 0.371312
834 1 0.0543746 0.304136 0.377744
838 1 0.18478 0.312123 0.373813
842 1 0.309603 0.311676 0.37738
845 1 0.431743 0.31158 0.380191
850 1 0.555308 0.291414 0.369598
854 1 0.685994 0.303044 0.369082
858 1 0.806889 0.300696 0.379787
862 1 0.944152 0.308821 0.380343
869 1 0.122827 0.373414 0.370191
873 1 0.244566 0.372858 0.379684
877 1 0.375286 0.37313 0.373422
881 1 0.499664 0.370554 0.369755
885 1 0.629774 0.368558 0.37472
889 1 0.754744 0.370855 0.377219
893 1 0.865733 0.373087 0.374765
865 1 0.995738 0.383089 0.380271
866 1 0.0618778 0.437689 0.377726
870 1 0.186765 0.426622 0.368378
874 1 0.319673 0.443151 0.37053
1141 1 0.563918 0.437062 0.369827
663 1 0.685021 0.430049 0.3715
890 1 0.810766 0.4338 0.362678
894 1 0.925402 0.439641 0.373632
901 1 0.133795 0.492516 0.372791
913 1 0.502832 0.493763 0.384412
921 1 0.745701 0.495811 0.36773
925 1 0.864793 0.500912 0.365874
897 1 0.00284862 0.498961 0.378542
905 1 0.245252 0.501369 0.365882
651 1 0.375431 0.507641 0.372488
888 1 0.631836 0.495183 0.373276
918 1 0.692867 0.562581 0.384429
898 1 0.0575856 0.56162 0.382889
933 1 0.121562 0.618685 0.353079
902 1 0.197383 0.566292 0.362295
909 1 0.433903 0.561496 0.376137
914 1 0.556064 0.555061 0.377186
922 1 0.804989 0.558333 0.364695
926 1 0.931547 0.56097 0.371467
937 1 0.25833 0.620583 0.374938
941 1 0.38058 0.638463 0.380055
945 1 0.494789 0.620831 0.372848
949 1 0.615259 0.630294 0.38271
953 1 0.74827 0.624717 0.375796
957 1 0.859274 0.622005 0.367356
929 1 0.000782057 0.629796 0.378636
930 1 0.0598095 0.684344 0.372735
934 1 0.182278 0.686072 0.369474
973 1 0.317875 0.695111 0.37755
942 1 0.436654 0.700805 0.370537
946 1 0.550868 0.67461 0.37401
950 1 0.674905 0.685353 0.382353
954 1 0.806665 0.691171 0.3734
735 1 0.934903 0.688151 0.372626
965 1 0.135497 0.755138 0.374772
938 1 0.249172 0.75145 0.377948
977 1 0.5035 0.760713 0.372469
981 1 0.615798 0.75157 0.379787
985 1 0.74412 0.750916 0.366256
989 1 0.878096 0.746646 0.381024
1285 1 0.246917 0.999882 0.631114
966 1 0.191093 0.811883 0.37473
976 1 0.311249 0.818993 0.387147
974 1 0.43409 0.816072 0.367873
978 1 0.562019 0.817171 0.385302
982 1 0.685939 0.805185 0.371096
986 1 0.814453 0.819691 0.386949
990 1 0.925032 0.81032 0.377446
997 1 0.13625 0.873178 0.369192
1001 1 0.249728 0.877203 0.374579
970 1 0.377684 0.872638 0.379676
1009 1 0.507318 0.876421 0.373537
1013 1 0.630179 0.870617 0.378431
1017 1 0.744073 0.865373 0.373053
1021 1 0.880833 0.878411 0.366197
998 1 0.187569 0.93756 0.356282
747 1 0.316315 0.928909 0.371935
714 1 0.419959 0.950354 0.387961
1010 1 0.564696 0.932367 0.375081
1014 1 0.690002 0.933866 0.374561
1018 1 0.818253 0.928954 0.378665
994 1 0.0718293 0.927302 0.368723
777 1 0.270863 0.00488841 0.37647
1006 1 0.504389 0.00664274 0.381512
789 1 0.62943 0.992118 0.374148
1022 1 0.945193 0.947047 0.368186
773 1 0.127637 0.995479 0.366843
779 1 0.313654 0.00635869 0.451235
1012 1 0.429683 0.0171468 0.438397
788 1 0.508707 0.0690098 0.436251
787 1 0.558832 0.993962 0.44158
780 1 0.243793 0.066103 0.438427
784 1 0.362367 0.078038 0.435339
792 1 0.631139 0.0584013 0.439099
796 1 0.755796 0.0500642 0.43934
800 1 0.873782 0.0617508 0.442904
772 1 0.0147811 0.0550471 0.436641
803 1 0.0647744 0.12246 0.432048
807 1 0.191805 0.128918 0.43846
812 1 0.302095 0.129711 0.449764
817 1 0.442951 0.116624 0.429718
563 1 0.569354 0.117923 0.444878
1079 1 0.689852 0.113331 0.429696
827 1 0.807159 0.1251 0.433361
831 1 0.942738 0.116836 0.434819
804 1 0.00381233 0.176912 0.432829
808 1 0.122301 0.179628 0.43538
1066 1 0.248082 0.19266 0.443129
816 1 0.375044 0.179328 0.43802
820 1 0.491719 0.177919 0.43705
1109 1 0.619762 0.178641 0.441914
828 1 0.748042 0.17937 0.436101
832 1 0.880227 0.184406 0.439557
835 1 0.0595551 0.242012 0.435856
839 1 0.188364 0.252017 0.436062
843 1 0.320354 0.246661 0.439147
847 1 0.421225 0.245627 0.435949
851 1 0.554885 0.234779 0.439306
1084 1 0.682115 0.239025 0.438372
859 1 0.821267 0.254249 0.445567
836 1 1.00108 0.305866 0.441258
840 1 0.123246 0.313401 0.433835
844 1 0.253935 0.309649 0.432919
848 1 0.370662 0.309702 0.443049
852 1 0.513 0.302306 0.442418
856 1 0.619682 0.302902 0.426045
860 1 0.741307 0.299087 0.426658
864 1 0.880419 0.31001 0.433184
867 1 0.0584333 0.373504 0.432159
871 1 0.181469 0.365502 0.439243
875 1 0.318592 0.376551 0.451679
846 1 0.436314 0.371668 0.436639
883 1 0.563805 0.370291 0.427597
886 1 0.690196 0.379809 0.433277
891 1 0.807661 0.360019 0.441544
895 1 0.933771 0.37592 0.42679
868 1 0.987104 0.446347 0.443968
872 1 0.127209 0.436817 0.426928
876 1 0.261565 0.428738 0.438361
880 1 0.378198 0.4449 0.435836
892 1 0.748219 0.438523 0.43059
896 1 0.854706 0.429229 0.434692
907 1 0.312902 0.512927 0.448104
878 1 0.432444 0.438189 0.375474
915 1 0.572739 0.498154 0.433298
919 1 0.69351 0.500758 0.436016
923 1 0.805796 0.498839 0.435131
900 1 0.0683106 0.493202 0.4296
903 1 0.184242 0.499862 0.434539
924 1 0.747415 0.564485 0.442441
906 1 0.3164 0.558926 0.376762
912 1 0.376032 0.562436 0.447276
916 1 0.498229 0.557206 0.448462
920 1 0.625782 0.563611 0.429893
928 1 0.864814 0.559074 0.432186
959 1 0.983607 0.55803 0.433358