ITEM: TIMESTEP
100000
ITEM: NUMBER OF ATOMS
2048
ITEM: BOX BOUNDS pp pp pp
0.0000000000000000e+00 1.3679807573413575e+01
0.0000000000000000e+00 1.3679807573413575e+01
0.0000000000000000e+00 1.3679807573413575e+01
ITEM: ATOMS id type xs ys zs
1080 1 0.20149 0.00711513 0.00939968
550 1 0.294692 0.0411631 0.0258334
83 1 0.492911 0.0326357 0.0267643
1676 1 0.886405 0.0257406 0.0124581
117 1 0.574644 0.0521279 0.039019
931 1 0.672658 0.0897108 0.00584954
2012 1 0.241087 0.141863 0.0171837
1075 1 0.529601 0.114462 0.00273472
975 1 0.74512 0.122856 0.02423
1384 1 0.936532 0.113935 0.0448441
1719 1 0.354503 0.158725 0.0378812
1816 1 0.499564 0.179862 0.000582812
161 1 0.644509 0.162781 0.0111842
168 1 0.927863 0.189364 0.0294337
1150 1 0.00757281 0.212219 0.0151531
1120 1 0.219645 0.205761 0.00234776
1953 1 0.301687 0.213131 0.0406266
28 1 0.614397 0.227372 0.00521115
1494 1 0.847166 0.197181 0.0116031
1392 1 0.00312786 0.284341 0.0271975
1547 1 0.108214 0.266476 0.0255626
1152 1 0.44433 0.241296 0.00430077
1570 1 0.729955 0.252716 0.00773463
207 1 0.924707 0.276614 0.0295371
1515 1 0.0650437 0.324233 0.0310201
1513 1 0.194422 0.298244 0.00614694
1316 1 0.47213 0.326186 0.0354351
62 1 0.628367 0.315757 0.0143922
672 1 0.776711 0.299749 0.0432224
1800 1 0.167944 0.361178 0.026667
1364 1 0.28903 0.336323 0.0415918
1317 1 0.554979 0.337915 0.0290302
600 1 0.73561 0.359448 0.0451161
1437 1 0.822304 0.37913 0.0458595
1286 1 0.936069 0.349833 0.0109939
2041 1 0.0929164 0.392841 0.00144898
1025 1 0.257744 0.424792 0.0309233
803 1 0.412986 0.427366 0.0115686
1871 1 0.49738 0.414676 0.0238957
1765 1 0.00367328 0.460859 0.0044558
698 1 0.168254 0.432557 0.028952
574 1 0.556732 0.457007 0.0186718
1111 1 0.626964 0.435641 0.0262914
495 1 0.863143 0.434369 0.0118581
1840 1 0.0686946 0.502388 0.0146587
1033 1 0.138629 0.488642 0.00329604
611 1 0.215226 0.505413 0.000760973
780 1 0.499906 0.50508 0.0432414
1759 1 0.776506 0.518957 0.00778035
351 1 0.841764 0.501483 0.040322
1659 1 0.940567 0.490642 0.0286012
373 1 0.0369217 0.561309 0.0431391
194 1 0.139581 0.558109 0.0265361
1620 1 0.258741 0.567186 0.0167177
142 1 0.442278 0.555051 0.0367072
1883 1 0.618289 0.570552 0.0118626
584 1 0.907578 0.552749 0.046234
958 1 0.330717 0.614159 0.0429327
1535 1 0.82824 0.57713 0.0223377
1582 1 0.0609218 0.623267 0.0171641
266 1 0.168607 0.645147 0.0343017
200 1 0.569643 0.63504 0.0046538
1551 1 0.68398 0.624387 0.0303397
1094 1 0.871437 0.66285 0.0262298
1467 1 0.941022 0.63939 0.034203
110 1 0.0126704 0.703105 0.0237401
1307 1 0.250476 0.688126 0.0125839
363 1 0.32077 0.691307 0.0465099
844 1 0.62961 0.686722 0.00986051
504 1 0.790576 0.68698 0.0119076
932 1 0.257487 0.760048 0.00895897
1193 1 0.501713 0.723904 0.0351147
143 1 0.571487 0.733675 0.0259387
711 1 0.732872 0.723908 0.0372383
998 1 0.956711 0.751919 0.00466455
924 1 0.431438 0.765267 0.0386841
1811 1 0.726127 0.798543 0.0425573
1478 1 0.825189 0.785827 0.0223352
1848 1 0.0445917 0.810002 0.0109369
1492 1 0.106042 0.849466 0.00698917
85 1 0.241589 0.826195 0.0464986
258 1 0.31819 0.827474 0.0322422
1137 1 0.501477 0.809917 0.0397221
771 1 0.655452 0.813197 0.046493
907 1 0.766423 0.855155 0.0246036
818 1 0.0309906 0.903517 0.0309005
21 1 0.182061 0.858505 0.00589829
761 1 0.284027 0.891306 0.0389148
2022 1 0.427808 0.875198 0.0441757
322 1 0.499747 0.883844 0.0267059
1454 1 0.647498 0.885606 0.0197301
1260 1 0.888366 0.873816 0.0133216
679 1 0.167641 0.934271 0.0208636
1133 1 0.707012 0.930973 0.0180336
1681 1 0.818294 0.920616 0.0443743
1015 1 0.0908811 0.953732 0.0239169
1315 1 0.268225 0.969323 0.0451033
1729 1 0.572622 0.983778 0.0146999
1304 1 0.746955 0.98789 0.0129554
522 1 0.821184 0.997314 0.0237196
545 1 0.879915 0.963066 0.0457299
155 1 0.942211 0.973674 0.0192087
1934 1 0.370536 0.028014 0.0498292
1471 1 0.444487 0.00990014 0.0776975
920 1 0.645277 0.0309217 0.048081
1103 1 0.928561 0.0406589 0.0658649
919 1 0.00720442 0.0732218 0.0821308
1629 1 0.223664 0.0686162 0.0483313
1151 1 0.404504 0.0942422 0.0553998
439 1 0.531332 0.0924669 0.0945458
2020 1 0.781346 0.0650631 0.0623773
1799 1 0.0830056 0.112154 0.0513712
1771 1 0.159179 0.106035 0.0752238
1906 1 0.292852 0.108772 0.0524477
1096 1 0.478586 0.133819 0.063925
394 1 0.632477 0.100197 0.0795836
254 1 0.79938 0.130656 0.0790249
1013 1 0.00706548 0.143855 0.0478828
176 1 0.0608842 0.187872 0.0623768
1605 1 0.145779 0.178981 0.0835494
707 1 0.567917 0.185492 0.0601847
1482 1 0.709177 0.174208 0.0505277
553 1 0.869612 0.145675 0.0732385
396 1 0.221685 0.201997 0.072059
57 1 0.411777 0.202354 0.0629351
1944 1 0.483341 0.208096 0.0635494
1097 1 0.647008 0.196283 0.080166
459 1 0.063592 0.272261 0.0804981
912 1 0.369502 0.256121 0.0886948
444 1 0.433136 0.282016 0.0764833
1558 1 0.564617 0.269696 0.0518054
1654 1 0.85774 0.272041 0.0551406
1978 1 0.147367 0.321641 0.0877547
893 1 0.216149 0.289368 0.0742805
1356 1 0.715027 0.306958 0.0896328
735 1 0.0942668 0.37476 0.0686001
635 1 0.417553 0.367007 0.0636503
26 1 0.612547 0.366288 0.0676704
1394 1 0.898062 0.368768 0.0642133
35 1 0.20954 0.392356 0.0817891
895 1 0.334611 0.411709 0.0652898
104 1 0.536421 0.385059 0.0841735
415 1 0.0192385 0.432228 0.0803685
1768 1 0.138427 0.444096 0.0883804
1192 1 0.674972 0.450218 0.0869139
1841 1 0.744183 0.464932 0.0828141
1694 1 0.825956 0.442984 0.0834107
1298 1 0.162257 0.509094 0.0791375
571 1 0.266745 0.497686 0.0804873
860 1 0.336156 0.479837 0.0712889
733 1 0.40563 0.480566 0.0624665
1257 1 0.613693 0.495317 0.0615089
164 1 0.997398 0.508823 0.0840796
1643 1 0.311419 0.544858 0.0578793
1814 1 0.684929 0.541202 0.055123
36 1 0.757944 0.54334 0.0768238
1272 1 0.500234 0.572778 0.0842936
1615 1 0.565181 0.610642 0.084382
1516 1 0.649304 0.597346 0.0896932
796 1 0.252505 0.629392 0.0535013
157 1 0.376605 0.64587 0.0859992
1617 1 0.474338 0.633904 0.055221
1412 1 0.61527 0.659072 0.0897288
718 1 0.762892 0.633279 0.0594836
1916 1 0.0812247 0.693823 0.0505806
483 1 0.436354 0.692238 0.0690928
1167 1 0.145701 0.715507 0.0723235
311 1 0.246118 0.72406 0.0824424
163 1 0.381086 0.740575 0.0920153
218 1 0.633032 0.746204 0.0608532
1207 1 0.842828 0.753847 0.0836693
1455 1 0.910612 0.742979 0.0826493
884 1 0.072552 0.767827 0.0863663
2009 1 0.133074 0.802883 0.0667483
1421 1 0.19612 0.766904 0.0533151
1463 1 0.309574 0.776832 0.0805273
319 1 0.558021 0.786798 0.0717539
1480 1 0.931248 0.808321 0.0613873
1539 1 0.0299419 0.829379 0.0760642
1602 1 0.388019 0.819383 0.0704126
1481 1 0.816744 0.848767 0.0730049
882 1 0.0950654 0.864191 0.082677
509 1 0.579007 0.867841 0.0535658
1836 1 0.877752 0.892177 0.0818207
1089 1 0.965221 0.87311 0.0654642
1859 1 0.154927 0.922952 0.0928318
1429 1 0.228684 0.915108 0.0768812
1010 1 0.385648 0.941063 0.0741075
89 1 0.512803 0.949947 0.0548998
18 1 0.606032 0.932676 0.0510702
167 1 0.73784 0.914125 0.0818344
772 1 0.0446953 0.996477 0.0608007
1099 1 0.127782 0.999291 0.081726
371 1 0.673292 0.970279 0.0868495
1493 1 0.779512 0.980496 0.0858048
361 1 0.952968 0.9535 0.0879819
1061 1 0.185375 0.0435187 0.10182
1462 1 0.526962 0.0245556 0.1166
1018 1 0.594265 0.0334052 0.105799
406 1 0.722571 0.0137713 0.12268
1488 1 0.913402 0.0314418 0.142348
1622 1 0.988695 0.0124911 0.128201
841 1 0.313758 0.0669363 0.104442
1764 1 0.384038 0.0545687 0.130583
1824 1 0.459242 0.0578622 0.128188
1225 1 0.7021 0.0848248 0.0975703
1702 1 0.847616 0.0571755 0.107216
722 1 0.0881984 0.121184 0.125745
501 1 0.225753 0.130943 0.0973235
301 1 0.424269 0.141551 0.136001
1958 1 0.96455 0.137432 0.114753
1919 1 0.293147 0.153965 0.112993
339 1 0.568631 0.144954 0.128111
1877 1 0.684604 0.151866 0.115565
669 1 0.770432 0.189282 0.119752
120 1 0.883546 0.155185 0.141869
1249 1 0.0869074 0.223889 0.13116
1989 1 0.289578 0.226392 0.125312
13 1 0.468231 0.204177 0.130019
1314 1 0.831538 0.22904 0.112315
1 1 0.942796 0.206295 0.108325
1214 1 0.0143941 0.238562 0.140357
100 1 0.520514 0.257212 0.10645
1236 1 0.76507 0.256589 0.107421
618 1 0.915514 0.269881 0.104226
677 1 0.296421 0.316754 0.114719
813 1 0.662073 0.298546 0.142157
848 1 0.799405 0.331843 0.107313
22 1 0.989004 0.293656 0.0983333
1327 1 0.0416314 0.35914 0.10871
1530 1 0.219904 0.340939 0.141626
1825 1 0.399837 0.339438 0.128206
846 1 0.474815 0.355136 0.106703
783 1 0.684317 0.376926 0.129777
1276 1 0.893437 0.338751 0.1306
1601 1 0.959894 0.354491 0.103825
1525 1 0.147928 0.386077 0.135129
368 1 0.388139 0.406618 0.113373
537 1 0.754091 0.387855 0.128871
78 1 0.82952 0.390759 0.138287
750 1 0.88643 0.427335 0.117422
1940 1 0.211203 0.463698 0.108667
1927 1 0.302606 0.43285 0.140786
1744 1 0.473391 0.435115 0.0987332
60 1 0.603191 0.44036 0.107485
175 1 0.300886 0.511322 0.137941
1793 1 0.458326 0.513311 0.10591
1852 1 0.55325 0.519314 0.101937
671 1 0.64002 0.514973 0.12614
251 1 0.716971 0.51419 0.138784
670 1 0.0679862 0.5349 0.101012
1235 1 0.376262 0.534272 0.136992
692 1 0.600708 0.569811 0.134443
1644 1 0.855613 0.544271 0.102508
173 1 0.130486 0.581783 0.0964855
981 1 0.209322 0.576882 0.104384
651 1 0.281451 0.594523 0.112608
568 1 0.424858 0.594682 0.0953256
686 1 0.843428 0.613666 0.124735
753 1 0.983894 0.590483 0.10689
1415 1 0.052035 0.622632 0.112968
1453 1 0.185383 0.647147 0.125076
1876 1 0.718041 0.621195 0.133097
941 1 0.915227 0.619179 0.105948
1068 1 0.0400042 0.713839 0.128008
812 1 0.120586 0.669284 0.124833
294 1 0.544237 0.698374 0.113865
87 1 0.709088 0.685989 0.0980784
1318 1 0.815625 0.701798 0.137827
1695 1 0.949258 0.686221 0.11356
1952 1 0.186595 0.75192 0.129382
259 1 0.480976 0.74198 0.104117
389 1 0.702175 0.755755 0.101857
1680 1 0.772497 0.759864 0.0959625
430 1 0.000718533 0.776871 0.113712
991 1 0.509541 0.804449 0.119479
61 1 0.647575 0.801288 0.12356
1021 1 0.194162 0.840965 0.096996
579 1 0.269497 0.842964 0.120586
1006 1 0.719453 0.853923 0.112693
1498 1 0.878139 0.812079 0.113749
891 1 0.487137 0.870896 0.106272
535 1 0.562401 0.893439 0.115254
191 1 0.647662 0.884426 0.102749
586 1 0.0516408 0.921794 0.10749
974 1 0.358522 0.913951 0.131251
1155 1 0.435942 0.94176 0.122006
1433 1 0.809575 0.907863 0.114451
1149 1 0.0968151 0.967387 0.139188
1795 1 0.231214 0.990178 0.100326
125 1 0.302194 0.997715 0.135391
734 1 0.587156 0.97423 0.139272
1208 1 0.890229 0.960393 0.128419
183 1 0.0654637 0.0377276 0.148723
1984 1 0.144435 0.00770392 0.171461
128 1 0.428132 0.0362537 0.187741
1881 1 0.506324 0.0180831 0.18633
464 1 0.808332 0.0155993 0.165223
908 1 0.261564 0.0695923 0.153069
2039 1 0.567766 0.0744566 0.155481
208 1 0.648184 0.0613931 0.155194
1511 1 0.738893 0.06479 0.169366
1085 1 0.0501332 0.1029 0.183549
393 1 0.186134 0.102739 0.151501
826 1 0.342361 0.119125 0.158144
397 1 0.738388 0.137516 0.169664
24 1 0.828121 0.0958461 0.162134
828 1 0.972438 0.108147 0.177483
911 1 0.0539537 0.169319 0.16211
2033 1 0.141783 0.177395 0.170108
1988 1 0.236288 0.148744 0.17727
518 1 0.314408 0.184293 0.183993
516 1 0.499486 0.159063 0.174493
767 1 0.955481 0.17397 0.175454
467 1 0.384015 0.209702 0.150147
1060 1 0.63222 0.194839 0.158315
388 1 0.708995 0.208744 0.176139
268 1 0.811377 0.223683 0.182409
1939 1 0.147029 0.261748 0.156008
659 1 0.23333 0.27444 0.158279
858 1 0.323793 0.271132 0.169532
226 1 0.518519 0.258541 0.189213
1671 1 0.582788 0.252271 0.166624
238 1 0.881066 0.238442 0.188964
1465 1 0.957501 0.263482 0.1799
569 1 0.0848 0.311409 0.151552
1084 1 0.453223 0.299631 0.162241
1223 1 0.522133 0.327716 0.161022
1776 1 0.746824 0.309433 0.156381
1712 1 0.82519 0.290285 0.180422
354 1 0.354223 0.337604 0.18417
1430 1 0.959538 0.352422 0.177287
596 1 0.0762282 0.384561 0.182844
675 1 0.23308 0.423271 0.166143
1258 1 0.581646 0.390006 0.163981
868 1 0.910507 0.421866 0.1873
1966 1 0.0582685 0.45306 0.173599
1217 1 0.171156 0.453641 0.1856
1479 1 0.374212 0.457416 0.179838
400 1 0.449525 0.464736 0.16468
337 1 0.544952 0.449601 0.145772
1136 1 0.648857 0.43309 0.16304
309 1 0.736915 0.448371 0.189487
263 1 0.97688 0.441207 0.158413
1410 1 0.0138524 0.507662 0.163217
749 1 0.116015 0.492501 0.154338
1673 1 0.232052 0.520323 0.153327
528 1 0.59977 0.483264 0.175026
1405 1 0.79043 0.482886 0.15187
1370 1 0.890058 0.505708 0.155681
1053 1 0.301186 0.566079 0.185827
290 1 0.50658 0.534862 0.167357
1161 1 0.819687 0.552144 0.170354
198 1 0.954948 0.542243 0.146563
1995 1 0.11239 0.586869 0.168104
854 1 0.217575 0.602019 0.171253
1533 1 0.36062 0.611396 0.150823
314 1 0.42312 0.58757 0.181312
250 1 0.54265 0.603696 0.165342
421 1 0.641288 0.586963 0.188954
1801 1 0.786733 0.613178 0.186999
92 1 0.429714 0.655308 0.165831
1936 1 0.191411 0.706766 0.187501
1264 1 0.663869 0.670766 0.157689
489 1 0.730809 0.693922 0.182779
1682 1 0.90084 0.680071 0.176147
1691 1 0.254973 0.750522 0.149953
879 1 0.330046 0.729096 0.155497
971 1 0.404879 0.728439 0.159653
50 1 0.610606 0.726372 0.146743
91 1 0.661917 0.753509 0.189052
601 1 0.96744 0.722588 0.180689
1757 1 0.0896588 0.776517 0.170167
790 1 0.736348 0.777217 0.15926
1042 1 0.82519 0.771742 0.172226
836 1 0.0353123 0.856211 0.143166
278 1 0.192961 0.813955 0.164895
1557 1 0.350804 0.839584 0.148168
419 1 0.443942 0.818665 0.179543
760 1 0.582385 0.835781 0.153054
1341 1 0.79303 0.841869 0.15475
1846 1 0.123834 0.878386 0.152751
540 1 0.205587 0.892003 0.171393
1237 1 0.291174 0.891969 0.170335
1273 1 0.51282 0.858937 0.18071
1295 1 0.698809 0.870205 0.180855
1491 1 0.856182 0.903333 0.173994
317 1 0.944398 0.889634 0.187189
1229 1 0.0465191 0.91158 0.184566
709 1 0.499817 0.942507 0.148209
668 1 0.56364 0.920837 0.183295
1447 1 0.645372 0.922927 0.16209
1423 1 0.785067 0.934493 0.173741
1536 1 0.985394 0.929009 0.151569
781 1 0.37498 0.987788 0.171985
500 1 0.326287 0.0376021 0.217355
921 1 0.702732 0.0267432 0.215753
1641 1 0.955103 0.043275 0.202595
1308 1 0.114746 0.0931694 0.221483
758 1 0.218053 0.0827564 0.219543
1590 1 0.633554 0.0765111 0.223672
140 1 0.739641 0.0947639 0.237397
1361 1 0.332279 0.115213 0.230905
480 1 0.398366 0.118935 0.201279
1475 1 0.520339 0.0955645 0.203842
840 1 0.603364 0.136163 0.200165
1102 1 0.174238 0.174869 0.235316
1630 1 0.535091 0.16429 0.236976
1065 1 0.791913 0.142909 0.23374
1742 1 0.0954438 0.238047 0.202897
731 1 0.248532 0.21746 0.211878
1266 1 0.445151 0.222081 0.214014
402 1 0.194422 0.256136 0.230149
1457 1 0.388341 0.26089 0.201354
694 1 0.654776 0.260222 0.235622
1388 1 0.759084 0.278814 0.238048
487 1 0.0461207 0.298831 0.212921
1093 1 0.1402 0.320782 0.193621
902 1 0.570196 0.307991 0.217247
17 1 0.699888 0.323548 0.236915
1177 1 0.976563 0.298963 0.23598
1252 1 0.260275 0.34799 0.200702
1885 1 0.761786 0.375287 0.200357
2010 1 0.344493 0.399523 0.223772
538 1 0.424809 0.38225 0.207695
243 1 0.551207 0.421043 0.222023
1128 1 0.846187 0.392691 0.221813
1997 1 0.80202 0.447776 0.221159
520 1 0.10278 0.521646 0.215165
1446 1 0.224119 0.502028 0.235718
1585 1 0.310176 0.492799 0.211281
1248 1 0.421884 0.518768 0.204887
449 1 0.501253 0.48181 0.217124
1864 1 0.666748 0.506406 0.197273
1268 1 0.752322 0.521799 0.209432
93 1 0.950323 0.497026 0.210711
185 1 0.174206 0.548173 0.192571
1205 1 0.371898 0.55558 0.232749
111 1 0.485864 0.570115 0.225362
151 1 0.573148 0.5364 0.216011
823 1 0.844947 0.526579 0.23804
865 1 0.907462 0.559487 0.198804
54 1 0.048306 0.581539 0.222477
1687 1 0.722543 0.584552 0.198178
48 1 0.86104 0.608572 0.219309
227 1 0.976559 0.590844 0.214778
403 1 0.131341 0.652987 0.203661
325 1 0.215812 0.652804 0.233052
820 1 0.277062 0.635238 0.199169
245 1 0.682917 0.66349 0.226641
355 1 0.968767 0.662623 0.218185
1983 1 0.0606978 0.68068 0.191768
1595 1 0.453238 0.681236 0.229356
1737 1 0.51687 0.711398 0.193855
154 1 0.584976 0.666787 0.203084
815 1 0.839883 0.682512 0.227679
490 1 0.127354 0.728537 0.20067
632 1 0.274943 0.739898 0.223482
1171 1 0.730046 0.749215 0.226726
214 1 0.897546 0.752494 0.199087
933 1 0.200634 0.777983 0.224636
521 1 0.356929 0.784139 0.20976
1026 1 0.554009 0.773421 0.197744
961 1 0.0225771 0.856306 0.229774
1636 1 0.13702 0.832407 0.211149
1586 1 0.226857 0.845973 0.220418
1728 1 0.290129 0.811212 0.19627
757 1 0.399477 0.843127 0.229127
369 1 0.493864 0.813283 0.237683
1287 1 0.641514 0.825495 0.192921
178 1 0.775153 0.842329 0.223881
1473 1 0.851938 0.829733 0.206242
524 1 0.453516 0.889776 0.20469
1772 1 0.121916 0.905377 0.229993
193 1 0.249272 0.931562 0.213525
1604 1 0.346784 0.912373 0.226496
577 1 0.505517 0.927874 0.235017
956 1 0.689287 0.943514 0.20662
2046 1 0.751291 0.908066 0.23182
1221 1 0.0633482 0.970836 0.226972
1677 1 0.172755 0.954279 0.223204
1685 1 0.450048 0.964986 0.191642
1181 1 0.569521 0.987421 0.212024
1209 1 0.638461 0.993971 0.196773
915 1 0.81675 0.97611 0.224338
1338 1 0.887982 0.987526 0.196169
269 1 0.990241 0.972883 0.206425
728 1 0.043112 0.0305447 0.27786
413 1 0.120586 0.00260612 0.264669
440 1 0.253734 0.0167706 0.271766
1972 1 0.393375 0.0363765 0.250278
1710 1 0.492635 0.00260773 0.252685
1009 1 0.753307 0.029025 0.269484
228 1 0.88378 0.0275918 0.255063
441 1 0.186669 0.0604274 0.282884
720 1 0.275058 0.089334 0.268925
342 1 0.611529 0.0519679 0.285516
589 1 0.811713 0.0746444 0.241338
404 1 0.385021 0.104237 0.285422
59 1 0.565059 0.106618 0.284467
1117 1 0.869849 0.117612 0.247427
988 1 0.0763404 0.16205 0.238304
558 1 0.25145 0.156921 0.247771
1912 1 0.389082 0.169117 0.249047
2007 1 0.461579 0.148464 0.252513
1387 1 0.63856 0.185701 0.238582
1789 1 0.712999 0.183681 0.239558
1244 1 0.973232 0.183726 0.249665
561 1 0.024179 0.236052 0.246612
308 1 0.10323 0.216788 0.275606
799 1 0.316995 0.22271 0.242352
914 1 0.593018 0.229824 0.262284
1895 1 0.899385 0.195461 0.258911
41 1 0.131664 0.278432 0.273861
648 1 0.388813 0.24778 0.26701
1002 1 0.498426 0.281585 0.271555
12 1 0.865073 0.2572 0.256783
1344 1 0.310607 0.295212 0.273137
455 1 0.436964 0.31569 0.263997
1980 1 0.821838 0.327923 0.247723
1679 1 0.896241 0.328802 0.260018
2000 1 0.0456564 0.363443 0.268506
696 1 0.181188 0.353009 0.255646
37 1 0.353827 0.351561 0.278562
1125 1 0.509888 0.346432 0.238373
32 1 0.615232 0.358509 0.239009
1779 1 0.117107 0.396452 0.242648
1650 1 0.273797 0.407164 0.24516
107 1 0.639099 0.426802 0.254207
1668 1 0.738949 0.404213 0.261324
124 1 0.984424 0.400114 0.242383
869 1 0.0505347 0.431011 0.281508
1941 1 0.176603 0.437014 0.270757
365 1 0.292245 0.472573 0.283027
1722 1 0.419497 0.440849 0.253719
1290 1 0.575028 0.466446 0.282689
1955 1 0.879773 0.468686 0.264094
1896 1 0.158491 0.522065 0.257776
1156 1 0.449685 0.517106 0.284081
273 1 0.630599 0.516024 0.256571
101 1 0.785286 0.566245 0.259658
552 1 0.916852 0.548888 0.266736
1417 1 0.0944137 0.594788 0.284081
1930 1 0.145811 0.594811 0.241354
297 1 0.261566 0.58256 0.254834
1366 1 0.646785 0.606581 0.259744
1518 1 0.716217 0.617994 0.274718
1718 1 0.379389 0.634028 0.247136
116 1 0.518372 0.659168 0.254554
986 1 0.105521 0.688748 0.265003
1531 1 0.208893 0.712156 0.271374
1555 1 0.288995 0.682447 0.257848
386 1 0.354864 0.705401 0.249001
1770 1 0.895397 0.685432 0.283071
730 1 0.0344378 0.736078 0.246829
786 1 0.419122 0.747374 0.241832
170 1 0.489047 0.741377 0.267018
1990 1 0.557184 0.724489 0.278425
1220 1 0.628385 0.715532 0.248675
593 1 0.0940715 0.774595 0.252008
744 1 0.269684 0.779217 0.281552
1777 1 0.345204 0.808212 0.276219
559 1 0.665067 0.789937 0.28421
1452 1 0.792888 0.773372 0.260848
1931 1 0.863535 0.783188 0.264413
1756 1 0.943758 0.772185 0.247721
926 1 0.072102 0.837941 0.279058
960 1 0.445061 0.851453 0.28313
787 1 0.594873 0.81529 0.25681
43 1 0.970179 0.854438 0.27775
1806 1 0.137986 0.862212 0.284735
9 1 0.274266 0.865305 0.28207
1813 1 0.556721 0.875881 0.23966
1004 1 0.633177 0.884114 0.241667
1899 1 0.688529 0.860657 0.282319
1115 1 0.862241 0.863529 0.281645
150 1 0.0572397 0.910434 0.269245
598 1 0.217708 0.913271 0.271307
1632 1 0.814741 0.926101 0.276356
196 1 0.912476 0.945756 0.247901
481 1 0.984683 0.927001 0.279487
231 1 0.341578 0.97911 0.251882
1354 1 0.691407 0.976391 0.269247
1627 1 0.30811 0.0378511 0.313607
1982 1 0.826369 0.0317165 0.307248
1826 1 0.478305 0.0761367 0.298975
225 1 0.680283 0.0567793 0.290561
340 1 0.9556 0.0574401 0.285849
1368 1 0.0323697 0.100237 0.294091
461 1 0.10793 0.134355 0.305733
147 1 0.199169 0.131419 0.303173
1261 1 0.316495 0.141571 0.32332
1767 1 0.630126 0.137701 0.29275
282 1 0.783164 0.0966662 0.325471
681 1 0.965725 0.123491 0.316661
113 1 0.573112 0.169951 0.314371
685 1 0.768092 0.176181 0.295842
1755 1 0.836467 0.19007 0.291669
3 1 0.888109 0.148636 0.323439
627 1 0.0309158 0.218546 0.32422
1200 1 0.178972 0.211406 0.307914
1172 1 0.370691 0.213448 0.333161
1369 1 0.448501 0.218437 0.307143
573 1 0.519909 0.21602 0.296325
1587 1 0.68977 0.205195 0.314061
412 1 0.283139 0.242155 0.318253
1723 1 0.595362 0.269226 0.324426
1443 1 0.69991 0.285579 0.308842
1733 1 0.784868 0.259817 0.3023
1396 1 0.9248 0.259496 0.296762
1419 1 0.0344388 0.299432 0.300186
562 1 0.227368 0.301037 0.296369
1786 1 0.374055 0.294807 0.31626
623 1 0.54795 0.32334 0.291103
661 1 0.643587 0.322028 0.30051
471 1 0.7563 0.3325 0.293174
1690 1 0.0311815 0.380141 0.333064
2042 1 0.484867 0.345278 0.313803
2047 1 0.867106 0.337282 0.326506
1529 1 0.149441 0.386064 0.307972
597 1 0.227638 0.382871 0.28961
1844 1 0.307159 0.391059 0.321209
1929 1 0.560546 0.393728 0.289233
1576 1 0.818653 0.423866 0.285796
494 1 0.880019 0.406951 0.323134
1250 1 0.93922 0.423973 0.294756
257 1 0.480037 0.431833 0.287891
1890 1 0.72957 0.437406 0.326018
95 1 0.0209305 0.506907 0.286303
1543 1 0.0925198 0.490264 0.286872
503 1 0.362558 0.476318 0.299901
1435 1 0.787941 0.49187 0.292503
1973 1 0.958223 0.489164 0.322364
260 1 0.130921 0.549481 0.324552
1439 1 0.202822 0.547401 0.312362
1275 1 0.276897 0.532067 0.319937
239 1 0.348045 0.54742 0.295645
842 1 0.521608 0.524125 0.306389
691 1 0.624264 0.538405 0.321417
541 1 0.691358 0.531004 0.287206
1977 1 0.982348 0.567101 0.299737
546 1 0.185344 0.615846 0.320215
1921 1 0.313769 0.61117 0.295506
1000 1 0.410071 0.602839 0.316341
976 1 0.48367 0.587563 0.29537
1963 1 0.553038 0.58955 0.296509
53 1 0.650055 0.61687 0.331395
189 1 0.872969 0.6179 0.30702
362 1 0.0453622 0.663075 0.295584
336 1 0.131137 0.665593 0.327865
726 1 0.612949 0.663198 0.289977
1807 1 0.804037 0.6569 0.321599
149 1 0.358781 0.676001 0.312272
880 1 0.430496 0.691977 0.304316
1397 1 0.509533 0.676174 0.324481
1083 1 0.671396 0.689278 0.312596
2016 1 0.964847 0.707861 0.286998
1138 1 0.171814 0.75905 0.307332
595 1 0.735464 0.719614 0.297928
766 1 0.0128976 0.784968 0.293016
719 1 0.399981 0.771855 0.313584
928 1 0.737559 0.79862 0.295832
303 1 0.898516 0.770057 0.329541
917 1 0.539999 0.839664 0.303006
1902 1 0.604857 0.836464 0.333132
434 1 0.801314 0.835649 0.291099
1589 1 0.375453 0.878107 0.286475
2037 1 0.49878 0.900306 0.318628
465 1 0.751767 0.896652 0.302976
1045 1 0.931862 0.901884 0.328084
514 1 0.421875 0.913943 0.323435
1600 1 0.560738 0.949443 0.293227
870 1 0.633023 0.940227 0.314871
1646 1 0.185825 0.992333 0.297584
148 1 0.277749 0.953372 0.304244
356 1 0.521128 0.999082 0.325695
19 1 0.741628 0.970273 0.329423
1431 1 0.945075 0.988774 0.292977
1923 1 0.106719 0.035462 0.344911
1265 1 0.252464 0.0188982 0.375434
804 1 0.354298 0.00885947 0.353466
1655 1 0.42595 0.0412337 0.337149
1302 1 0.681712 0.00584665 0.363222
1043 1 0.758231 0.0309073 0.368375
1301 1 0.895434 0.0210206 0.339056
1175 1 0.954428 0.00866214 0.374915
1608 1 0.0196435 0.0521469 0.343477
262 1 0.16966 0.064578 0.377512
515 1 0.237895 0.0904526 0.356339
1524 1 0.541314 0.0669885 0.379108
1548 1 0.916751 0.0835978 0.370445
1731 1 0.0261661 0.120973 0.365169
513 1 0.361669 0.099745 0.363815
994 1 0.492852 0.13941 0.348581
508 1 0.599968 0.104209 0.353809
442 1 0.673738 0.126744 0.368002
1306 1 0.102887 0.153905 0.37467
323 1 0.240378 0.16312 0.353564
284 1 0.619511 0.172123 0.369499
1052 1 0.748552 0.153004 0.365116
1372 1 0.108835 0.218223 0.346212
1470 1 0.552082 0.215826 0.372194
1393 1 0.885113 0.203915 0.378745
1312 1 0.968746 0.224409 0.370397
667 1 0.441443 0.276948 0.359601
86 1 0.517777 0.281874 0.34097
420 1 0.655875 0.265637 0.364426
145 1 0.727088 0.268485 0.379099
716 1 0.875147 0.270622 0.351758
1377 1 0.0928552 0.288579 0.338404
144 1 0.308152 0.303782 0.360941
1395 1 0.792029 0.310476 0.37885
1664 1 0.186006 0.333382 0.358659
816 1 0.367999 0.352193 0.358307
511 1 0.488698 0.376547 0.377316
384 1 0.600161 0.34383 0.36671
470 1 0.730762 0.374091 0.355273
861 1 0.964609 0.336679 0.344002
427 1 0.124895 0.423365 0.370912
468 1 0.216564 0.42418 0.347197
1884 1 0.434228 0.419001 0.343032
1559 1 0.567183 0.412335 0.38064
1204 1 0.649905 0.403556 0.343036
1507 1 0.0679482 0.473628 0.371831
109 1 0.28228 0.471664 0.358271
321 1 0.50619 0.46842 0.359506
383 1 0.592756 0.472718 0.353616
1179 1 0.795619 0.429418 0.35237
122 1 0.99645 0.447415 0.366392
1961 1 0.166335 0.483253 0.33982
1070 1 0.347362 0.517314 0.360065
1438 1 0.414689 0.49536 0.356952
1611 1 0.739596 0.504494 0.374187
1224 1 0.881307 0.476303 0.346689
293 1 0.0312779 0.533084 0.363952
737 1 0.470201 0.543631 0.357369
1560 1 0.678334 0.539219 0.364603
898 1 0.783624 0.562289 0.341498
918 1 0.875024 0.554902 0.333745
1246 1 0.94096 0.5467 0.372713
82 1 0.0786745 0.604523 0.357125
1892 1 0.253041 0.614034 0.336581
1477 1 0.340791 0.605525 0.364555
1849 1 0.820511 0.616177 0.375172
1564 1 0.455016 0.663085 0.368379
1311 1 0.514926 0.619506 0.372623
378 1 0.583674 0.62985 0.367968
312 1 0.717185 0.636388 0.34577
527 1 0.97865 0.625194 0.349004
1874 1 0.053085 0.687835 0.37188
1520 1 0.237506 0.69556 0.33605
1012 1 0.56475 0.708396 0.366678
830 1 0.758827 0.69381 0.358683
1640 1 0.121956 0.73203 0.356127
664 1 0.292409 0.744991 0.343344
849 1 0.478623 0.726264 0.364042
103 1 0.704641 0.74292 0.363591
1697 1 0.992568 0.752491 0.355444
1803 1 0.48861 0.806937 0.336167
985 1 0.549945 0.771 0.340929
556 1 0.615851 0.76758 0.373578
742 1 0.799245 0.764542 0.342136
1774 1 0.0362906 0.836451 0.357103
977 1 0.116072 0.8199 0.340846
770 1 0.189507 0.825176 0.333535
1745 1 0.29332 0.812272 0.343935
947 1 0.383776 0.85689 0.359909
1449 1 0.545283 0.835296 0.378145
1206 1 0.677853 0.817908 0.349358
995 1 0.801288 0.832753 0.361046
1391 1 0.964458 0.824985 0.355915
963 1 0.0987994 0.886628 0.342373
1007 1 0.168939 0.900375 0.33719
1683 1 0.61353 0.899389 0.374
1352 1 0.694244 0.904624 0.340265
1239 1 0.253753 0.923524 0.368511
306 1 0.331969 0.910131 0.341246
1748 1 0.00615934 0.956148 0.34493
249 1 0.0745274 0.966069 0.362439
862 1 0.166178 0.987748 0.375807
1091 1 0.468047 0.98577 0.375288
201 1 0.83058 0.952508 0.339686
1360 1 0.385636 0.0423935 0.423658
599 1 0.604911 0.0268779 0.407935
138 1 0.891039 0.0166316 0.410406
732 1 0.304737 0.0809589 0.397635
1501 1 0.460844 0.05342 0.416459
271 1 0.800937 0.0812958 0.408126
1106 1 0.987598 0.069778 0.411799
77 1 0.430461 0.11448 0.389476
391 1 0.365317 0.168192 0.396802
1743 1 0.547317 0.147551 0.390529
805 1 0.83547 0.152335 0.390699
2040 1 0.956492 0.145279 0.390782
1549 1 0.0658917 0.203851 0.428481
283 1 0.174105 0.204635 0.383731
199 1 0.729398 0.196886 0.420843
1853 1 0.807778 0.23454 0.395076
1086 1 0.0117799 0.256473 0.418031
1326 1 0.239613 0.265902 0.38181
187 1 0.358835 0.253083 0.392807
1662 1 0.478853 0.247572 0.414924
1607 1 0.0514058 0.320096 0.385117
1775 1 0.122347 0.319329 0.402315
576 1 0.448015 0.324219 0.416973
1835 1 0.530839 0.313918 0.4188
740 1 0.664817 0.297101 0.427128
10 1 0.866377 0.328842 0.401077
156 1 0.973739 0.320943 0.417742
15 1 0.788584 0.3766 0.40058
2019 1 0.189974 0.403155 0.414122
1634 1 0.278126 0.383013 0.392089
604 1 0.393472 0.405314 0.398692
448 1 0.707042 0.413952 0.415627
190 1 0.865572 0.399407 0.394463
67 1 0.940059 0.38303 0.388466
2028 1 0.444556 0.449811 0.408408
1519 1 0.631265 0.438742 0.409025
621 1 0.805993 0.44108 0.423771
1216 1 0.91518 0.449908 0.414645
242 1 0.187412 0.503912 0.411029
789 1 0.373143 0.498981 0.428186
458 1 0.541613 0.514314 0.420379
967 1 0.686069 0.485855 0.424704
806 1 0.804346 0.515573 0.420593
1794 1 0.116262 0.524251 0.390339
1714 1 0.263169 0.539907 0.396679
688 1 0.410654 0.555268 0.398436
847 1 0.617915 0.526572 0.400586
978 1 0.860288 0.567103 0.411037
935 1 0.17699 0.583385 0.387466
969 1 0.252523 0.605482 0.422595
1805 1 0.479223 0.575633 0.418452
56 1 0.680214 0.572858 0.425219
1169 1 0.755798 0.603245 0.406042
1968 1 0.0162323 0.661272 0.423432
1752 1 0.111187 0.65635 0.402581
1024 1 0.314983 0.662067 0.420439
1701 1 0.40439 0.628666 0.402311
940 1 0.527277 0.66368 0.422009
564 1 0.657876 0.6631 0.391585
1362 1 0.89666 0.62394 0.388452
20 1 0.198641 0.667584 0.407212
1959 1 0.38833 0.699294 0.394927
2005 1 0.828586 0.713833 0.387182
1739 1 0.899838 0.702286 0.422165
1626 1 0.969161 0.693984 0.386005
277 1 0.0839646 0.731239 0.418667
1282 1 0.189276 0.754734 0.381435
1603 1 0.233355 0.724867 0.427865
1544 1 0.384921 0.786937 0.389761
424 1 0.456721 0.802895 0.402271
640 1 0.656399 0.792433 0.427906
134 1 0.82205 0.796353 0.419247
267 1 0.946337 0.784863 0.417948
1017 1 0.0885718 0.813577 0.4118
1163 1 0.229923 0.844269 0.391029
390 1 0.878962 0.832048 0.381904
1827 1 0.0496701 0.880925 0.417908
525 1 0.161164 0.899117 0.419539
1845 1 0.307234 0.876117 0.408962
1760 1 0.463702 0.901792 0.389139
1351 1 0.670191 0.861788 0.40424
587 1 0.766467 0.897722 0.385025
1350 1 0.827011 0.883153 0.428105
1709 1 0.984042 0.89579 0.390052
706 1 0.379728 0.941108 0.402245
946 1 0.546567 0.923025 0.392322
76 1 0.708912 0.94228 0.398257
1951 1 0.896525 0.923825 0.385902
554 1 0.112317 0.982247 0.423844
1574 1 0.303601 0.952479 0.411009
265 1 0.770867 0.985088 0.421657
1889 1 0.839638 0.958359 0.409426
808 1 0.0424843 0.0286962 0.432871
1933 1 0.282193 0.0403491 0.468698
1661 1 0.514554 0.0162011 0.443835
1706 1 0.703077 0.0233605 0.429921
1162 1 0.826694 0.0211565 0.44298
2026 1 0.937165 0.0408617 0.456671
1382 1 0.148095 0.0577316 0.446475
1573 1 0.221599 0.0721231 0.434468
1703 1 0.754253 0.0605726 0.468669
410 1 0.859544 0.0763569 0.4749
136 1 0.0553927 0.126356 0.432421
984 1 0.362326 0.130129 0.460481