ITEM: TIMESTEP
100000
ITEM: NUMBER OF ATOMS
2048
ITEM: BOX BOUNDS pp pp pp
0.0000000000000000e+00 1.2699208415745595e+01
0.0000000000000000e+00 1.2699208415745595e+01
0.0000000000000000e+00 1.2699208415745595e+01
ITEM: ATOMS id type xs ys zs
1746 1 0.560638 0.193215 0.0355903
416 1 0.498351 0.982261 0.0353899
1194 1 0.251123 0.0357708 0.0262
1906 1 0.661205 0.906987 0.154077
346 1 0.868778 0.948576 0.0919881
629 1 0.999654 0.0513341 0.0748073
817 1 0.687186 0.369205 0.104304
1134 1 0.198463 0.962097 0.222514
151 1 0.395086 0.181785 0.127087
23 1 0.966122 0.546127 0.157307
414 1 0.437034 0.742506 0.0736028
997 1 0.256017 0.687771 0.315037
1536 1 0.520912 0.177869 0.118509
1221 1 0.636179 0.71198 0.151351
202 1 0.609359 0.658035 0.303866
856 1 0.701137 0.649546 0.0145064
1040 1 0.112856 0.213925 0.14879
1532 1 0.0595487 0.216171 0.051652
145 1 0.393277 0.0657487 0.00144308
743 1 0.258631 0.637924 0.171477
1235 1 0.436879 0.604205 0.0446215
96 1 0.317543 0.170049 0.133259
1384 1 0.452037 0.420224 0.0115687
466 1 0.272488 0.203642 0.0559183
196 1 0.383061 0.387057 0.0137069
1922 1 0.417754 0.862298 0.239346
2048 1 0.308049 0.884648 0.0580801
1243 1 0.995984 0.513452 0.025558
1491 1 0.153069 0.167763 0.0876637
1743 1 0.833475 0.0403742 0.284596
864 1 0.339865 0.863863 0.146518
1896 1 0.27771 0.808933 0.0672662
158 1 0.716383 0.746336 0.300638
733 1 0.608644 0.876888 0.030933
697 1 0.0302849 0.931098 0.215729
1556 1 0.997227 0.794977 0.176147
1439 1 0.140571 0.281294 0.021739
1645 1 0.580464 0.756624 0.223763
671 1 0.675827 0.257599 0.0243571
575 1 0.0820613 0.555222 0.0374381
499 1 0.85692 0.711876 0.296799
1780 1 0.929795 0.700331 0.232909
1244 1 0.725883 0.750086 0.0317246
996 1 0.641942 0.794962 0.243709
380 1 0.900512 0.108727 0.117612
1949 1 0.545448 0.337693 0.19054
1465 1 0.237061 0.556868 0.0752555
219 1 0.748077 0.374287 0.319823
1017 1 0.114296 0.452635 0.132672
1720 1 0.293237 0.126776 0.214018
229 1 0.211186 0.00321356 0.298841
651 1 0.793095 0.00823846 0.0560618
1086 1 0.336876 0.0229644 0.0384132
186 1 0.0484188 0.0195124 0.276263
723 1 0.705255 0.280881 0.139283
1283 1 0.00367556 0.734212 0.0335823
1660 1 0.10166 0.361951 0.0189049
285 1 0.11725 0.928037 0.186386
972 1 0.588952 0.51766 0.0444597
1331 1 0.5236 0.294574 0.0141716
495 1 0.451072 0.31157 0.0299816
80 1 0.474529 0.661497 0.00570924
1368 1 0.301617 0.0839692 0.0894805
194 1 0.0459985 0.524959 0.140774
890 1 0.288805 0.752805 0.0118071
2011 1 0.422928 0.945185 0.228029
146 1 0.186114 0.229342 0.0498492
767 1 0.879014 0.428943 0.133526
400 1 0.013949 0.453568 0.263474
542 1 0.7505 0.889189 0.221291
918 1 0.0704982 0.476215 0.0547639
1835 1 0.0503245 0.00223207 0.0306465
1600 1 0.398027 0.684954 0.0324002
766 1 0.694557 0.452463 0.292319
722 1 0.385918 0.876669 0.0162123
104 1 0.996232 0.18375 0.0127955
1583 1 0.946784 0.490418 0.28002
496 1 0.2768 0.921289 0.118863
1427 1 0.2751 0.712883 0.178904
843 1 0.718526 0.586297 0.0656151
638 1 0.865856 0.0224584 0.00584414
1999 1 0.547664 0.221313 0.269544
294 1 0.593642 0.269801 0.0417299
1798 1 0.281303 0.956558 0.0543076
1460 1 0.0489096 0.088457 0.306202
1009 1 0.753913 0.890866 0.0106945
657 1 0.256483 0.596705 0.0127677
1688 1 0.72444 0.423474 0.0657435
1172 1 0.536168 0.145057 0.30057
1908 1 0.0577035 0.630135 0.0452036
1190 1 0.846351 0.625802 0.0872801
1479 1 0.250573 0.50351 0.233224
452 1 0.244191 0.361487 0.118187
1374 1 0.76927 0.831872 0.0606976
1345 1 0.254692 0.299624 0.325661
446 1 0.919415 0.277747 0.054597
90 1 0.632572 0.325732 0.319142
715 1 0.255679 0.846939 0.153317
94 1 0.92192 0.433111 0.0683787
558 1 0.0712972 0.15862 0.261338
253 1 0.121944 0.961699 0.261733
332 1 0.791375 0.916408 0.0824631
1060 1 0.896977 0.766689 0.0965697
2003 1 0.581138 0.708142 0.0199001
1657 1 0.726534 0.970103 0.306725
2025 1 0.978837 0.758109 0.106974
1466 1 0.226831 0.897702 0.207849
945 1 0.363155 0.834079 0.0777079
862 1 0.723021 0.332541 0.0397924
1634 1 0.436127 0.845415 0.0845859
42 1 0.684831 0.47438 0.00168029
39 1 0.0610728 0.662202 0.173384
1431 1 0.80797 0.151892 0.115119
614 1 0.465862 0.176923 0.311103
789 1 0.388852 0.164347 0.260042
648 1 0.530106 0.0469891 0.312553
1454 1 0.513927 0.710985 0.0702319
1516 1 0.309877 0.0683968 0.279044
1774 1 0.532819 0.378199 0.311997
1237 1 0.583461 0.505252 0.132142
615 1 0.816992 0.919748 0.238053
357 1 0.35005 0.734134 0.277826
1934 1 0.919801 0.488958 0.0195315
141 1 0.212572 0.416105 0.0395032
634 1 0.130752 0.996137 0.0447886
1899 1 0.0363978 0.0513456 0.152139
863 1 0.838096 0.949321 0.0211559
1240 1 0.241863 0.0962355 0.162786
915 1 0.763295 0.941881 0.157191
1149 1 0.0504567 0.802652 0.01817
471 1 0.192312 0.0805111 0.0948512
232 1 0.395146 0.249284 0.0429607
2014 1 0.439564 0.527614 0.00773843
227 1 0.179419 0.347172 0.0596359
2032 1 0.602458 0.525082 0.281591
740 1 0.440595 0.671051 0.0998377
1257 1 0.838242 0.0981568 0.159361
336 1 0.680129 0.152454 0.137699
1519 1 0.211533 0.162089 0.0162755
1700 1 0.0143642 0.633045 0.323931
118 1 0.659363 0.930814 0.0516771
38 1 0.994631 0.131367 0.266943
956 1 0.493046 0.276143 0.322067
72 1 0.309758 0.241233 0.109286
1048 1 0.484604 0.256039 0.0952977
457 1 0.593211 0.216729 0.120719
1512 1 0.98158 0.658776 0.0370586
886 1 0.677479 0.386338 0.00977455
342 1 0.291375 0.467694 0.318517
1570 1 0.751941 0.181925 0.249931
46 1 0.630431 0.782392 0.0102071
1729 1 0.421043 0.294923 0.11094
1626 1 0.481557 0.29925 0.162152
437 1 0.624028 0.224024 0.286321
598 1 0.233788 0.927513 0.278937
1852 1 0.851482 0.129792 0.0563698
960 1 0.127735 0.421253 0.0675172
1667 1 0.277974 0.350926 0.187522
604 1 0.237207 0.25715 0.100837
624 1 0.527631 0.648193 0.305453
1833 1 0.844382 0.267567 0.160271
1501 1 0.938309 0.276044 0.125185
1736 1 0.10822 0.288191 0.187914
534 1 0.113414 0.352692 0.0980813
931 1 0.175264 0.410796 0.140693
385 1 0.611613 0.435893 0.019657
512 1 0.758253 0.978894 0.236531
1265 1 0.541132 0.373652 0.027906
1004 1 0.78581 0.259419 0.113269
443 1 0.091546 0.267515 0.0980818
869 1 0.754799 0.489699 0.116633
1300 1 0.954345 0.405175 0.137917
978 1 0.9063 0.34407 0.142513
436 1 0.85881 0.290632 0.00640021
296 1 0.23062 0.886309 0.0105208
621 1 0.574556 0.638819 0.155776
31 1 0.729725 0.418813 0.145391
377 1 0.802156 0.421522 0.116534
854 1 0.487378 0.612661 0.145653
1799 1 0.0996649 0.582602 0.18026
1622 1 0.144404 0.432085 0.211185
248 1 0.415635 0.692869 0.28594
1033 1 0.521051 0.536637 0.17604
1229 1 0.844368 0.50017 0.165366
1608 1 0.920402 0.198364 0.0648236
716 1 0.567373 0.58072 0.107895
1412 1 0.653184 0.697334 0.0604541
1684 1 0.923515 0.629625 0.087273
1728 1 0.907702 0.569196 0.0336704
1340 1 0.984328 0.561161 0.288709
546 1 0.910297 0.0288689 0.0925734
252 1 0.228663 0.453791 0.111387
607 1 0.511971 0.54409 0.0193495
1123 1 0.965121 0.251584 0.32054
578 1 0.0388718 0.599674 0.12832
719 1 0.175811 0.483271 0.0600662
531 1 0.321585 0.689425 0.0375799
550 1 0.685246 0.651999 0.116428
547 1 0.0095473 0.2702 0.0796369
2039 1 0.806346 0.198876 0.0517145
1830 1 0.102555 0.688464 0.0778423
1382 1 0.00774239 0.451078 0.0996942
963 1 0.379502 0.773379 0.0344191
218 1 0.156277 0.447347 0.290082
1393 1 0.559226 0.763877 0.107555
1387 1 0.0387305 0.852395 0.296557
667 1 0.795708 0.669011 0.15033
1658 1 0.833129 0.389688 0.0342493
734 1 0.704459 0.828896 0.0201209
143 1 0.0926659 0.922592 0.0464357
1274 1 0.228326 0.738427 0.0717447
569 1 0.421668 0.30587 0.260353
1890 1 0.718595 0.549776 0.313582
393 1 0.851808 0.745511 0.223525
924 1 0.861626 0.808881 0.172742
274 1 0.49065 0.793776 0.0996823
1429 1 0.132741 0.964944 0.122352
1264 1 0.533287 0.841294 0.177612
1413 1 0.735894 0.879436 0.110717
551 1 0.783283 0.770216 0.116798
939 1 0.021687 0.688483 0.0950764
308 1 0.375672 0.995726 0.261603
1342 1 0.204289 0.937596 0.137093
805 1 0.318996 0.827099 0.00765216
325 1 0.782542 0.0264314 0.128816
814 1 0.974116 0.894188 0.0691113
100 1 0.970069 0.975366 0.0811128
1186 1 0.556739 0.961422 0.0892411
290 1 0.0999715 0.0622709 0.0220021
230 1 0.512622 0.946636 0.284636
1676 1 0.33642 0.236278 0.323329
1312 1 0.661325 0.849782 0.0881737
684 1 0.806372 0.10379 0.317201
851 1 0.357028 0.952321 0.0175168
1405 1 0.547821 0.729193 0.303525
980 1 0.165823 0.896678 0.0541493
423 1 0.373534 0.137553 0.186413
1674 1 0.103277 0.103307 0.0824599
1935 1 0.330972 0.98487 0.110444
846 1 0.426475 0.906802 0.161561
45 1 0.673946 0.979976 0.136335
609 1 0.818539 0.889076 0.151597
1386 1 0.0619491 0.98133 0.118277
741 1 0.251551 0.0292516 0.107835
1138 1 0.187961 0.250576 0.290985
405 1 0.57715 0.131573 0.0790032
1407 1 0.931587 0.179167 0.150624
41 1 0.0741739 0.993574 0.189367
43 1 0.0558233 0.170803 0.186517
2018 1 0.46987 0.707251 0.334983
271 1 0.453597 0.185806 0.0574822
1215 1 0.533532 0.0572175 0.0600938
631 1 0.603373 0.0313209 0.0813123
1754 1 0.735831 0.983399 0.0117388
1091 1 0.199821 0.300035 0.233386
2000 1 0.285752 0.295082 0.0449161
987 1 0.186567 0.233127 0.157844
1115 1 0.539037 0.243984 0.170338
120 1 0.765471 0.277321 0.18974
356 1 0.632611 0.19887 0.0539487
1291 1 0.807741 0.207111 0.194002
839 1 0.438396 0.375557 0.0825028
1873 1 0.610337 0.369777 0.0609974
649 1 0.230505 0.167852 0.116426
1539 1 0.16858 0.284598 0.101076
620 1 0.31256 0.316937 0.117729
1841 1 0.549574 0.0255972 0.131481
840 1 0.699382 0.233886 0.274858
2002 1 0.114323 0.378045 0.268255
1408 1 0.376546 0.410797 0.175744
1806 1 0.253149 0.270301 0.176961
1474 1 0.475119 0.375708 0.161822
338 1 0.813721 0.329769 0.241222
1165 1 0.864987 0.204054 0.121947
782 1 0.10694 0.109728 0.159599
1187 1 0.183787 0.0700741 0.0168139
1751 1 0.363502 0.554083 0.274028
703 1 0.542161 0.402728 0.229944
816 1 0.674231 0.21983 0.114377
1219 1 0.900367 0.319424 0.217054
228 1 0.960777 0.181764 0.221205
221 1 0.0171628 0.266825 0.157868
1469 1 0.442597 0.530786 0.156457
1915 1 0.365269 0.325141 0.0593696
1185 1 0.816627 0.350434 0.148228
337 1 0.975388 0.325361 0.191997
1810 1 0.368535 0.392823 0.100888
1151 1 0.432012 0.452615 0.0793076
1727 1 0.622029 0.442623 0.210163
645 1 0.751919 0.333549 0.117288
1303 1 0.821239 0.423877 0.186995
1282 1 0.854511 0.488417 0.0769418
1838 1 0.194836 0.503791 0.156339
1828 1 0.505123 0.485343 0.121199
1256 1 0.630449 0.586078 0.068883
1263 1 0.745798 0.518526 0.0255507
241 1 0.979325 0.344938 0.0999884
947 1 0.13362 0.524242 0.114915
1152 1 0.189798 0.678123 0.110771
1370 1 0.92538 0.0552773 0.296199
1986 1 0.4412 0.952594 0.0681219
155 1 0.345196 0.620456 0.0585132
873 1 0.509542 0.63265 0.0758384
1649 1 0.916731 0.624439 0.211376
201 1 0.995266 0.657647 0.23398
1438 1 0.191787 0.603947 0.129884
636 1 0.37067 0.667436 0.122087
1984 1 0.717587 0.546787 0.161189
977 1 0.796937 0.554961 0.200017
771 1 0.786886 0.752818 0.270511
1671 1 0.117068 0.619744 0.111691
2041 1 0.366159 0.485381 0.119121
1192 1 0.303194 0.520725 0.0862618
780 1 0.371066 0.588194 0.192208
660 1 0.708479 0.700629 0.181538
1288 1 0.637028 0.574402 0.164508
299 1 0.765727 0.66762 0.227992
1153 1 0.124626 0.728341 0.22898
1456 1 0.245046 0.773513 0.136808
831 1 0.747438 0.612288 0.135075
1616 1 0.800885 0.551687 0.110251
612 1 0.974533 0.633592 0.156084
574 1 0.998757 0.737729 0.236261
355 1 0.112763 0.834181 0.0664854
768 1 0.122384 0.814433 0.201118
1006 1 0.298707 0.716467 0.111109
1171 1 0.41909 0.507066 0.32051
78 1 0.710443 0.764683 0.22313
14 1 0.760942 0.653009 0.0652876
1087 1 0.72487 0.716473 0.099111
1847 1 0.210107 0.758574 0.278286
1601 1 0.561748 0.802164 0.0456671
1786 1 0.636386 0.770147 0.0871155
1084 1 0.690025 0.848852 0.197025
1610 1 0.979172 0.903812 0.266455
397 1 0.98506 0.703593 0.168905
1655 1 0.147593 0.752681 0.0639523
525 1 0.156281 0.800932 0.12394
1788 1 0.161813 0.87554 0.254239
1547 1 0.494671 0.88789 0.245766
1182 1 0.807018 0.850172 0.278281
1050 1 0.845374 0.87014 0.0297443
1028 1 0.913584 0.744664 0.1721
1397 1 0.93673 0.819199 0.140751
830 1 0.206546 0.977292 0.0647572
1113 1 0.374013 0.910219 0.0917533
65 1 0.517725 0.890553 0.121573
1709 1 0.478312 0.814762 0.0214647
18 1 0.699706 0.784971 0.133711
1871 1 0.131995 0.627606 0.278023
256 1 0.881992 0.858107 0.255761
1188 1 0.913185 0.916974 0.0253253
1945 1 0.111956 0.0391857 0.123212
1793 1 0.583475 0.89989 0.161986
619 1 0.872247 0.97728 0.30602
1482 1 0.931079 0.361943 0.0260065
359 1 0.456081 0.031401 0.0749864
1461 1 0.602896 0.971572 0.15178
1996 1 0.671812 0.127989 0.272368
1498 1 0.841294 0.0567106 0.085942
1624 1 0.981569 0.117732 0.101804
1073 1 0.189834 0.0194732 0.14719
1744 1 0.142925 0.0259121 0.217001
440 1 0.270045 0.9861 0.16363
1110 1 0.772754 0.129802 0.0447116
184 1 0.709927 0.0452746 0.162427
865 1 0.835718 0.825482 0.0961443
1577 1 0.242714 0.0287954 0.22974
737 1 0.394432 0.249229 0.173471
206 1 0.210464 0.810006 0.0140906
800 1 0.732146 0.312985 0.270877
442 1 0.805442 0.254206 0.266796
1293 1 0.998083 0.197788 0.0960287
374 1 0.182165 0.167572 0.297009
949 1 0.519374 0.104233 0.14753
1659 1 0.684088 0.0682202 0.0127397
1854 1 0.741667 0.239069 0.0486537
1054 1 0.229263 0.184379 0.224313
568 1 0.598913 0.0363105 0.277963
1268 1 0.502087 0.329858 0.252498
1249 1 0.634072 0.274387 0.160546
1958 1 0.426424 0.602604 0.290923
984 1 0.691599 0.221523 0.205026
1926 1 0.845138 0.257918 0.0721256
1217 1 0.839666 0.184287 0.273675
567 1 0.536075 0.470752 0.0242178
702 1 0.939538 0.0340596 0.0151145
976 1 0.671822 0.551935 0.0118779
510 1 0.873775 0.250767 0.232933
188 1 0.296516 0.20815 0.196389
1840 1 0.567326 0.287201 0.112115
2038 1 0.990026 0.121328 0.184355
1329 1 0.226596 0.44052 0.195042
348 1 0.0441258 0.937728 0.316791
590 1 0.477957 0.482783 0.277618
836 1 0.615953 0.212919 0.207516
1142 1 0.926524 0.396858 0.27457
928 1 0.975676 0.323937 0.286778
1423 1 0.045414 0.301527 0.227406
1445 1 0.200771 0.557656 0.270924
295 1 0.327086 0.284238 0.187134
1971 1 0.439231 0.394761 0.232363
1530 1 0.612953 0.356922 0.221228
315 1 0.901248 0.39289 0.201546
20 1 0.0306484 0.384373 0.147674
1818 1 0.0483195 0.498524 0.319124
487 1 0.108098 0.366476 0.187572
1394 1 0.0568416 0.436759 0.20179
56 1 0.0941015 0.476486 0.262194
795 1 0.300713 0.410258 0.130451
554 1 0.344449 0.446056 0.048745
1434 1 0.953597 0.0417218 0.154884
1527 1 0.619635 0.344693 0.132903
1016 1 0.99686 0.480847 0.183747
435 1 0.44265 0.449152 0.159301
1690 1 0.693819 0.427605 0.215065
641 1 0.599364 0.402057 0.282881
395 1 0.857024 0.582831 0.236669
874 1 0.884536 0.551442 0.11873
1076 1 0.79177 0.460762 0.0425656
618 1 0.172022 0.601958 0.210511
802 1 0.500772 0.417299 0.0701242
4 1 0.504324 0.467172 0.206798
1049 1 0.908299 0.823213 0.0417864
438 1 0.851729 0.666506 0.20871
231 1 0.195983 0.715414 0.192875
537 1 0.456767 0.532003 0.0810813
1358 1 0.41494 0.738571 0.223192
480 1 0.136379 0.726289 0.137644
1233 1 0.189813 0.622357 0.0549528
254 1 0.519038 0.764802 0.176644
1269 1 0.642653 0.718578 0.229361
806 1 0.711583 0.619136 0.21027
1000 1 0.130606 0.647554 0.00977947
1545 1 0.0766957 0.762297 0.0915637
1557 1 0.317416 0.786036 0.12952
1145 1 0.487054 0.793637 0.245508
509 1 0.859619 0.787191 0.297433
1966 1 0.145455 0.803228 0.278085
1839 1 0.220753 0.70545 0.00605153
1797 1 0.22895 0.869021 0.0881604
855 1 0.300689 0.787275 0.211689
1261 1 0.610339 0.799258 0.168465
544 1 0.0343952 0.847815 0.213535
1705 1 0.0279889 0.913181 0.122626
1758 1 0.29878 0.969152 0.318708
1803 1 0.403138 0.789955 0.129453
1701 1 0.369645 0.810885 0.195171
1940 1 0.482833 0.980073 0.128589
1675 1 0.661862 0.884642 0.266161
908 1 0.945444 0.749367 0.296464
788 1 0.521201 0.942124 0.183092
327 1 0.609612 0.950293 0.245462
1278 1 0.91259 0.899027 0.31419
1363 1 0.9191 0.964055 0.151886
2044 1 0.149142 0.879594 0.131619
101 1 0.411855 0.992386 0.136076
427 1 0.529939 0.1208 0.0114269
60 1 0.635466 0.0574417 0.144747
1449 1 0.776591 0.819431 0.189448
1605 1 0.973685 0.883958 0.184675
1581 1 0.898378 0.887021 0.182193
1936 1 0.377888 0.0920229 0.246514
881 1 0.138496 0.52679 0.298935
626 1 0.87629 0.175138 0.203371
971 1 0.864497 0.0348197 0.198766
1209 1 0.139952 0.128871 0.244952
1740 1 0.416618 0.037481 0.212634
888 1 0.482777 0.117679 0.081749
1220 1 0.600336 0.0831965 0.211281
1020 1 0.724607 0.0969174 0.099252
319 1 0.915097 0.998892 0.243555
1574 1 0.349707 0.021335 0.183232
331 1 0.416363 0.90794 0.313831
66 1 0.917922 0.194865 0.277879
1902 1 0.0512252 0.244858 0.31501
366 1 0.986916 0.0358899 0.236974
1954 1 0.0867996 0.739303 0.0211015
866 1 0.438632 0.184709 0.204944
1882 1 0.360437 0.649818 0.257587
2006 1 0.779081 0.137277 0.186739
818 1 0.652216 0.303887 0.0812095
1885 1 0.47967 0.253246 0.249065
1938 1 0.501799 0.329335 0.0944311
1881 1 0.138301 0.129458 0.0164422
999 1 0.263852 0.256331 0.259447
1968 1 0.357044 0.235449 0.241128
1534 1 0.189293 0.373886 0.244647
1067 1 0.948204 0.499674 0.0995665
1089 1 0.0292475 0.219336 0.241365
279 1 0.954685 0.26005 0.228314
973 1 0.0981147 0.251312 0.25337
1868 1 0.234402 0.429954 0.27909
1168 1 0.312404 0.178019 0.269854
1161 1 0.686182 0.507295 0.0773289
515 1 0.837783 0.67732 0.0292639
82 1 0.0701705 0.29434 0.001841
1167 1 0.033818 0.377951 0.25498
1636 1 0.188687 0.341549 0.169047
1484 1 0.551325 0.396041 0.123421
1741 1 0.553356 0.47184 0.266487
168 1 0.711022 0.355486 0.191096
277 1 0.288362 0.490979 0.150372
1103 1 0.302944 0.58604 0.234656
1362 1 0.234776 0.566283 0.181293
411 1 0.399368 0.593006 0.110472
1916 1 0.886542 0.127496 0.316726
1735 1 0.665351 0.502602 0.243157
1458 1 0.996842 0.411054 0.0252248
616 1 0.685643 0.378096 0.277267
1035 1 0.0760337 0.565388 0.259683
526 1 0.427425 0.635963 0.201897
887 1 0.577181 0.90569 0.310283
875 1 0.589933 0.651569 0.0769397
1351 1 0.818554 0.419831 0.280085
403 1 0.942673 0.672198 0.304464
57 1 0.10246 0.502241 0.189654
783 1 0.302519 0.586052 0.12821
714 1 0.423757 0.483027 0.225083
1395 1 0.512491 0.625967 0.226299
937 1 0.639775 0.645407 0.212265
365 1 0.813507 0.622178 0.284099
586 1 0.165405 0.5035 0.22734
463 1 0.524823 0.551727 0.260703
742 1 0.57488 0.676604 0.238486
1336 1 0.663996 0.603197 0.278101
1789 1 0.684707 0.0354184 0.0817188
1065 1 0.862658 0.47669 0.237471
1879 1 0.911044 0.724444 0.0273875
167 1 0.0695424 0.673346 0.258055
970 1 0.453222 0.731086 0.150832
1052 1 0.872751 0.335387 0.0742396
1306 1 0.467593 0.852623 0.311779
880 1 0.920464 0.489068 0.175747
1876 1 0.185673 0.688179 0.263916
642 1 0.360759 0.734539 0.16456
1417 1 0.732492 0.536688 0.23918
30 1 0.914757 0.787637 0.237214
1697 1 0.935868 0.553017 0.224969
1951 1 0.141474 0.656096 0.174719
1823 1 0.264587 0.540224 0.307818
1346 1 0.198667 0.81219 0.188122
998 1 0.0186049 0.833525 0.0841235
1795 1 0.23913 0.835463 0.247862
1615 1 0.408045 0.783912 0.290319
1448 1 0.699175 0.668703 0.271216
1845 1 0.904256 0.648721 0.010456
1369 1 0.524438 0.156542 0.217327
2045 1 0.483248 0.702872 0.252072
563 1 0.517074 0.686799 0.163326
1531 1 0.701757 0.0329717 0.251842
88 1 0.455537 0.83654 0.168902
720 1 0.782247 0.730953 0.192452
1877 1 0.760294 0.480245 0.196364
1575 1 0.974138 0.828706 0.258099
700 1 0.899453 0.928332 0.247609
899 1 0.0700252 0.832749 0.142422
2043 1 0.67621 0.815965 0.301633
553 1 0.992101 0.400572 0.320675
483 1 0.586057 0.877791 0.232314
413 1 0.734477 0.964132 0.0922114
1031 1 0.146549 0.749141 0.334651
1662 1 0.992714 0.975107 0.171952
513 1 0.306906 0.986847 0.234977
1816 1 0.308431 0.890207 0.205448
1402 1 0.341785 0.831424 0.267181
370 1 0.696783 0.946347 0.207945
1620 1 0.892451 0.468808 0.332065
482 1 0.735581 0.881729 0.307156
318 1 0.587296 0.512779 0.207259
1817 1 0.344113 0.947772 0.174743
1128 1 0.490464 0.0356233 0.175839
688 1 0.680823 0.103953 0.200851
48 1 0.647185 0.104587 0.0887015
656 1 0.826263 0.11072 0.242548
1693 1 0.327059 0.230056 0.00985947
1057 1 0.898398 0.874424 0.0985382
462 1 0.797934 0.762873 0.0341189
1424 1 0.737213 0.822583 0.26046
461 1 0.170575 0.155657 0.173246
1504 1 0.562062 0.00609889 0.213561
1980 1 0.289208 0.614614 0.308672
824 1 0.696384 0.145651 0.0451135
1785 1 0.388136 0.368882 0.305852
323 1 0.187756 0.0707829 0.262848
2008 1 0.44292 0.105414 0.187297
92 1 0.342486 0.924131 0.263545
1919 1 0.799182 0.950144 0.314806
519 1 0.423491 0.435422 0.292614
1726 1 0.834469 0.972917 0.157549
1668 1 0.0547697 0.0803794 0.229411
944 1 0.064624 0.161905 0.105145
1254 1 0.121453 0.0577185 0.295088
28 1 0.372456 0.0645531 0.123754
982 1 0.160184 0.555044 0.038294
1537 1 0.848124 0.603885 0.167354
131 1 0.735892 0.181765 0.0950328
1752 1 0.0820513 0.89499 0.250573
1276 1 0.936758 0.698192 0.113061
1453 1 0.0671776 0.781436 0.262468
2012 1 0.584886 0.592119 0.226482
1965 1 0.583392 0.156229 0.164114
1718 1 0.282306 0.396881 0.0611091
1202 1 0.823471 0.570094 0.0356779
138 1 0.913405 0.118391 0.240123
1398 1 0.344731 0.462189 0.259644
784 1 0.836369 0.351045 0.309011
333 1 0.176104 0.365356 0.323126
1376 1 0.416945 0.237131 0.289618
798 1 0.0689862 0.424809 0.305855
312 1 0.769092 0.484557 0.285069
801 1 0.893472 0.30488 0.295398
1271 1 0.443215 0.121297 0.0150006
893 1 0.465069 0.12662 0.25971
985 1 0.269218 0.642586 0.0879584
777 1 0.798454 0.315812 0.0588461
921 1 0.791711 0.684567 0.324217
1983 1 0.974386 0.404681 0.218651
1223 1 0.485301 0.00949878 0.249524
557 1 0.982608 0.974586 0.286003
1724 1 0.633673 0.432217 0.100608
1477 1 0.349404 0.517127 0.186469
650 1 0.644192 0.010968 0.20876
389 1 0.0193567 0.937039 0.0275597
665 1 0.596628 0.0730068 0.0169724
1018 1 0.266554 0.361997 0.261835
879 1 0.986035 0.582255 0.0684291
628 1 0.415072 0.330561 0.192398
930 1 0.285572 0.882049 0.328333
1731 1 0.93779 0.105796 0.0429378
1535 1 0.0541615 0.394674 0.0718183
1673 1 0.0624724 0.338021 0.315084
63 1 0.450314 0.557422 0.224906
1493 1 0.575535 0.300984 0.255943
1344 1 0.0150986 0.547927 0.216903
1343 1 0.854118 0.707627 0.106801
583 1 0.286902 0.776821 0.287181
936 1 0.331299 0.658981 0.184964
1509 1 0.589163 0.844867 0.103877
352 1 0.29301 0.683572 0.246691
2040 1 0.915179 0.595165 0.287085
1174 1 0.823314 0.539736 0.293074
1281 1 0.0639227 0.754888 0.167517
52 1 0.112812 0.201762 0.30657
570 1 0.0264506 0.716021 0.305082
559 1 0.454371 0.0613929 0.298747
1335 1 0.185672 0.100102 0.338142
102 1 0.598611 0.154754 0.257597
1184 1 0.789413 0.040023 0.207824
216 1 0.348373 0.353529 0.216753
485 1 0.37594 0.142148 0.0601319
1173 1 0.671891 0.486638 0.170617
707 1 0.245308 0.35355 0.00835631
992 1 0.154299 0.21121 0.225562
1663 1 0.239996 0.62508 0.250739
1811 1 0.321527 0.154178 0.00072593
1162 1 0.562059 0.595816 0.0290283
236 1 0.294752 0.419878 0.219135
1520 1 0.118392 0.87213 0.318531
1888 1 0.564353 0.81415 0.276814
1396 1 0.524872 0.0744409 0.242102
1155 1 0.324586 0.302556 0.272682
1099 1 0.747907 0.0964111 0.256913
1717 1 0.247617 0.111377 0.271997
1146 1 0.500303 0.889789 0.0394121
1587 1 0.644788 0.289678 0.232993
797 1 0.00679388 0.0955916 0.0148878
1102 1 0.37247 0.534256 0.0641552
448 1 0.763417 0.80968 0.329492
171 1 0.610782 0.783001 0.324194
13 1 0.261174 0.510479 0.00213501
1105 1 0.61385 0.978853 0.0169729
1696 1 0.315261 0.38286 0.318998
1742 1 0.757308 0.243251 0.331677
1389 1 0.995221 0.278715 0.00789132
1457 1 0.757598 0.0446835 0.314493
220 1 0.700037 0.174091 0.328572
1821 1 0.208133 0.859936 0.317742
29 1 0.663784 0.0378512 0.316972
185 1 0.130351 0.305077 0.316022
762 1 0.0345329 0.16567 0.331963
105 1 0.661238 0.704099 0.331259
1436 1 0.567501 0.284351 0.332197
1613 1 0.933705 0.827038 0.328377
1071 1 0.48979 0.557806 0.33004
1213 1 0.00372329 0.792702 0.327542
596 1 0.386925 0.0864005 0.327125
347 1 0.479656 0.0565504 0.00694794
1150 1 0.0570552 0.953852 0.396391
140 1 0.493518 0.94234 0.367109
1042 1 0.598231 0.923729 0.396352
938 1 0.224325 0.205976 0.357198
1584 1 0.234726 0.771342 0.369004
975 1 0.900721 0.0810139 0.470783
633 1 0.925591 0.980267 0.357093
571 1 0.30826 0.0630532 0.404978
1478 1 0.122877 0.669314 0.57622
1297 1 0.625043 0.224858 0.417338
833 1 0.157454 0.673657 0.343762
1711 1 0.724928 0.197423 0.398466
111 1 0.642799 0.566099 0.505763
927 1 0.345973 0.131115 0.379285
288 1 0.375226 0.909623 0.434586
1750 1 0.406713 0.179351 0.422554
1721 1 0.463919 0.376107 0.360805
1739 1 0.76569 0.0453499 0.397633
1777 1 0.157777 0.35447 0.408684
1063 1 0.360088 0.943706 0.362819
2016 1 0.323455 0.695268 0.352688
853 1 0.78516 0.804687 0.404861
709 1 0.386408 0.0711011 0.408105
1880 1 0.440687 0.112023 0.445654
1068 1 0.850782 0.554762 0.361569
1302 1 0.243897 0.405157 0.354974
726 1 0.522684 0.807395 0.601819
305 1 0.484025 0.790298 0.344228
1275 1 0.741544 0.114352 0.411361
464 1 0.760841 0.290044 0.468609
353 1 0.0938783 0.297462 0.438267
1598 1 0.740983 0.640663 0.4141
1253 1 0.637224 0.293189 0.457957
946 1 0.707636 0.281213 0.415074
2015 1 0.851662 0.277543 0.453853
1923 1 0.973594 0.549438 0.628449
639 1 0.195913 0.396914 0.456751
1762 1 0.175699 0.73264 0.407718
1143 1 0.449891 0.451304 0.390501
1737 1 0.698452 0.442388 0.425825
25 1 0.615255 0.237006 0.508234
245 1 0.301621 0.9127 0.413928
653 1 0.950669 0.0485597 0.419421
157 1 0.919642 0.442812 0.466956
979 1 0.0973087 0.463382 0.363463
1485 1 0.96727 0.480253 0.426854
17 1 0.302846 0.380681 0.399469
1375 1 0.869196 0.601226 0.425936
1765 1 0.636128 0.463117 0.340479
1590 1 0.513033 0.400407 0.538253
1884 1 0.716562 0.110112 0.657495
505 1 0.202365 0.289906 0.485523
1824 1 0.847747 0.85098 0.444089
1976 1 0.150769 0.170741 0.371738
1970 1 0.319374 0.56418 0.433831
514 1 0.580069 0.542921 0.4642
727 1 0.0039689 0.66444 0.405245
1947 1 0.817982 0.476972 0.354957
1964 1 0.942827 0.123032 0.611537
467 1 0.141197 0.587103 0.390415
1486 1 0.53027 0.20883 0.348311
492 1 0.367842 0.50402 0.406415
993 1 0.754735 0.305043 0.367071
479 1 0.931807 0.555793 0.427052
1157 1 0.948424 0.711324 0.367885
953 1 0.671468 0.246511 0.34558
265 1 0.637302 0.625074 0.362245
1807 1 0.641752 0.948508 0.334315
1528 1 0.085235 0.616489 0.49398
849 1 0.598682 0.59428 0.646428
1311 1 0.788247 0.222255 0.485561
1679 1 0.375778 0.619082 0.413812
378 1 0.843053 0.527596 0.561905
264 1 0.811145 0.809095 0.513452
1686 1 0.717543 0.633162 0.339471
1383 1 0.27407 0.986239 0.407941
1418 1 0.0838751 0.657992 0.336347
1319 1 0.220489 0.32407 0.571942
1426 1 0.469968 0.668137 0.432314
1002 1 0.676757 0.650826 0.54321
1127 1 0.844012 0.0960926 0.414239
322 1 0.966696 0.695879 0.498456
1506 1 0.131802 0.798424 0.409339
1061 1 0.136818 0.585636 0.605202
907 1 0.418714 0.539561 0.446618
2010 1 0.235209 0.929647 0.363589
376 1 0.650282 0.823533 0.408426
50 1 0.349683 0.770671 0.344702
326 1 0.895697 0.761593 0.357919
1781 1 0.0973362 0.814208 0.625865
1014 1 0.897425 0.0688877 0.365895
1005 1 0.929171 0.33612 0.570137
490 1 0.940947 0.938536 0.551706
1133 1 0.542997 0.68809 0.564301
804 1 0.748806 0.446856 0.629721
721 1 0.108964 0.122251 0.335502
1354 1 0.204859 0.151816 0.427587
1093 1 0.818988 0.746123 0.440792
1505 1 0.0985234 0.530839 0.661277
799 1 0.634211 0.8355 0.590166
1443 1 0.120141 0.158266 0.659225
774 1 0.414984 0.566299 0.3708
1450 1 0.708799 0.696124 0.475567
1568 1 0.248088 0.677266 0.490812
753 1 0.697974 0.509797 0.637314
1214 1 0.0576613 0.866951 0.369666
1892 1 0.745443 0.57145 0.634414
98 1 0.438291 0.888107 0.38903
314 1 0.130806 0.757068 0.577463
1159 1 0.101249 0.55026 0.445968
1284 1 0.604485 0.0317305 0.653167
779 1 0.942154 0.83599 0.405284
1166 1 0.355808 0.867758 0.359712
1988 1 0.481532 0.952764 0.652225
1870 1 0.539133 0.337302 0.385904
1147 1 0.475328 0.0663588 0.513786
1432 1 0.797929 0.964553 0.394899
97 1 0.633172 0.503412 0.591641
1372 1 0.208536 0.610621 0.334009
1863 1 0.346891 0.988947 0.440917
2017 1 0.256245 0.985973 0.614895
1350 1 0.16316 0.290286 0.649781
1603 1 0.0876536 0.282876 0.664497
837 1 0.644582 0.0798483 0.426733
133 1 0.417611 0.0860784 0.617664
1034 1 0.903723 0.13969 0.392991
1627 1 0.25179 0.172714 0.540944
1508 1 0.194314 0.0376374 0.476692
857 1 0.316471 0.0095039 0.533672
476 1 0.363033 0.438616 0.338716
1230 1 0.603628 0.0352913 0.479104
508 1 0.90797 0.160918 0.474168
878 1 0.545743 0.259414 0.409332
399 1 0.347436 0.122896 0.454823
1772 1 0.523444 0.0795841 0.444947
1428 1 0.648141 0.757924 0.636769
1856 1 0.042124 0.172222 0.424842
1181 1 0.442761 0.863279 0.636962
251 1 0.213813 0.846721 0.602147
55 1 0.675063 0.960439 0.648474
1117 1 0.905012 0.275799 0.366509
503 1 0.538538 0.655379 0.382383
749 1 0.953729 0.336284 0.36667
627 1 0.922336 0.360766 0.437278
1463 1 0.196576 0.817849 0.455911
1586 1 0.629013 0.162437 0.466109
832 1 0.499265 0.736097 0.608144
1357 1 0.468689 0.293645 0.405813
803 1 0.545999 0.213307 0.469667
659 1 0.740869 0.208456 0.553994
266 1 0.835327 0.175757 0.444098
303 1 0.841828 0.326111 0.607429
582 1 0.9089 0.299507 0.496821
281 1 0.0567794 0.50061 0.413928
1467 1 0.228973 0.457491 0.41841
711 1 0.260715 0.518631 0.45573
1318 1 0.617341 0.363115 0.426638
163 1 0.826751 0.445905 0.495136
675 1 0.897331 0.384507 0.352483
692 1 0.0322051 0.431506 0.376446
1029 1 0.855345 0.683224 0.579104
1334 1 0.809981 0.948981 0.615666
1927 1 0.515502 0.460142 0.347933
1858 1 0.843769 0.103484 0.585395
1325 1 0.649838 0.525863 0.436631
1247 1 0.831143 0.715891 0.644843
1631 1 0.52084 0.446449 0.429481
746 1 0.6088 0.642133 0.482229
1337 1 0.330957 0.308534 0.365884
1125 1 0.773611 0.454213 0.424765
2031 1 0.0550271 0.51379 0.50947
1672 1 0.156885 0.505284 0.394346
1961 1 0.145417 0.358475 0.547303
34 1 0.448867 0.639049 0.358817
1038 1 0.560959 0.527462 0.612547
1815 1 0.584642 0.601946 0.414687
293 1 0.366544 0.152373 0.62239
1685 1 0.278806 0.511509 0.384012
375 1 0.523233 0.649341 0.488764
93 1 0.0437192 0.598745 0.418267
195 1 0.432638 0.591147 0.659745
1541 1 0.332739 0.980976 0.613299
263 1 0.408561 0.718913 0.386399
958 1 0.41382 0.662033 0.535839
1440 1 0.647104 0.681082 0.426387
3 1 0.636349 0.552012 0.361979
933 1 0.0649533 0.750821 0.540869
1666 1 0.24758 0.696849 0.389133
1766 1 0.230297 0.571171 0.397207
549 1 0.345754 0.647349 0.480599
504 1 0.566747 0.864349 0.549582
401 1 0.641958 0.71086 0.515091
59 1 0.846942 0.601021 0.505674
381 1 0.419288 0.982979 0.332192
694 1 0.53381 0.860458 0.354852
754 1 0.779832 0.587962 0.349182
1032 1 0.0569912 0.792547 0.42179