LAMMPS (15 Sep 2022)
OMP_NUM_THREADS environment is not set. Defaulting to 1 thread. (src/comm.cpp:98)
  using 1 OpenMP thread(s) per MPI task
# 2d WCA system, random initial configuration

#variable density equal 0.5
variable initial_temperature equal 3.0
variable final_temperature equal 0.1
variable dt equal 0.01
variable tau equal 100*${dt}
variable tau equal 100*0.01
variable thermo_time equal 50000*${dt}
variable thermo_time equal 50000*0.01
variable equil_steps equal 50000
variable run_steps equal 100000

units           lj
atom_style      atomic
dimension       3

lattice         fcc ${density}
lattice         fcc 1.5
Lattice spacing in x,y,z = 1.3867225 1.3867225 1.3867225
region          box block 0 8 0 8 0 8
# number of atom types
create_box      1 box
Created orthogonal box = (0 0 0) to (11.09378 11.09378 11.09378)
  3 by 1 by 1 MPI processor grid
create_atoms    1 box
Created 2048 atoms
  using lattice units in orthogonal box = (0 0 0) to (11.09378 11.09378 11.09378)
  create_atoms CPU = 0.000 seconds
mass 1 1.0

velocity all create ${initial_temperature} 12345
velocity all create 3 12345

pair_style      lj/cut 1.0
#type_1 type_2 epsilon sigma cutoff
pair_coeff      1 1 10.0 0.89089871814 1.0
pair_modify shift yes

timestep ${dt}
timestep 0.01
thermo ${thermo_time}
thermo 500

fix 1 all nvt temp ${initial_temperature} ${initial_temperature} ${tau}
fix 1 all nvt temp 3 ${initial_temperature} ${tau}
fix 1 all nvt temp 3 3 ${tau}
fix 1 all nvt temp 3 3 1
run ${equil_steps}
run 50000
Generated 0 of 0 mixed pair_coeff terms from geometric mixing rule
Neighbor list info ...
  update: every = 1 steps, delay = 0 steps, check = yes
  max neighbors/atom: 2000, page size: 100000
  master list distance cutoff = 1.3
  ghost atom cutoff = 1.3
  binsize = 0.65, bins = 18 18 18
  1 neighbor lists, perpetual/occasional/extra = 1 0 0
  (1) pair lj/cut, perpetual
      attributes: half, newton on
      pair build: half/bin/atomonly/newton
      stencil: half/bin/3d
      bin: standard
Per MPI rank memory allocation (min/avg/max) = 3.112 | 3.113 | 3.114 Mbytes
   Step          Temp          E_pair         E_mol          TotEng         Press     
         0   3              0.9375         0              5.4353027      55.122803    
       500   2.6887064      5.4983236      0              9.529414       109.38389    
      1000   3.0255869      5.8730522      0              10.409217      114.08745    
      1500   3.0843105      5.998441       0              10.622648      115.32327    
      2000   3.0521483      5.9536912      0              10.529678      115.04074    
      2500   2.9647528      5.9786633      0              10.423621      115.35092    
      3000   3.027245       5.8607156      0              10.399366      113.67697    
      3500   3.0020737      6.000464       0              10.501376      115.44833    
      4000   3.0604795      5.986534       0              10.575012      115.53973    
      4500   3.0198329      5.9817373      0              10.509275      115.2025     
      5000   3.0728866      6.0363485      0              10.643428      115.71467    
      5500   3.0536305      6.1068509      0              10.68506       116.71173    
      6000   3.051761       6.0855813      0              10.660988      116.58571    
      6500   3.1037916      5.9493056      0              10.60272       115.12116    
      7000   3.0846449      6.1062286      0              10.730937      116.63521    
      7500   3.0667725      6.2358565      0              10.833769      117.91082    
      8000   3.1040417      5.9261406      0              10.57993       114.72632    
      8500   3.0732021      6.0465627      0              10.654115      116.11221    
      9000   3.0236735      6.1589155      0              10.692211      117.19058    
      9500   3.1141302      6.0390823      0              10.707997      115.84964    
     10000   3.1396194      5.9529758      0              10.660105      114.96294    
     10500   3.0620824      6.164873       0              10.755754      117.48539    
     11000   2.9757406      6.3453537      0              10.806785      118.91062    
     11500   3.0730234      6.065256       0              10.67254       116.49365    
     12000   3.1290817      6.0002208      0              10.691552      115.62561    
     12500   3.0197423      6.1700911      0              10.697493      117.22878    
     13000   3.0672514      6.0812581      0              10.679889      116.49617    
     13500   3.1243396      6.1251345      0              10.809356      117.1601     
     14000   3.0838964      6.1024832      0              10.726069      116.87864    
     14500   3.122503       5.9663286      0              10.647796      115.30414    
     15000   3.1653849      5.9827406      0              10.7285        115.44747    
     15500   3.0581259      6.0819084      0              10.666857      116.56849    
     16000   3.1372725      6.1325264      0              10.836137      116.94918    
     16500   3.1373857      5.9640382      0              10.667819      115.30781    
     17000   3.1144797      5.9779295      0              10.647368      115.31788    
     17500   3.1330352      6.0228485      0              10.720107      115.97028    
     18000   3.1584606      5.9412697      0              10.676647      114.91299    
     18500   3.0807282      6.080284       0              10.69912       116.52623    
     19000   3.0498179      6.2107707      0              10.783264      117.71409    
     19500   3.0132543      6.136772       0              10.654446      117.06967    
     20000   3.0335539      6.1604095      0              10.708518      117.28925    
     20500   3.0953254      6.1666994      0              10.80742       117.41191    
     21000   3.1090164      6.0595278      0              10.720775      116.31089    
     21500   3.1272095      6.003849       0              10.692373      115.60445    
     22000   3.1302974      6.0036781      0              10.696831      115.8587     
     22500   3.0430344      6.144622       0              10.706945      117.43935    
     23000   3.1344694      6.0499483      0              10.749357      116.26926    
     23500   3.0909343      5.9631004      0              10.597238      115.52603    
     24000   3.1098899      6.0619684      0              10.724525      116.31307    
     24500   3.0281613      6.0962357      0              10.63626       116.68064    
     25000   3.1013459      6.0431811      0              10.692928      116.07896    
     25500   3.0746061      6.0750148      0              10.684672      116.33789    
     26000   3.0683074      6.1159763      0              10.71619       117.02216    
     26500   3.0636534      6.1208369      0              10.714073      116.99028    
     27000   3.1163409      6.0209773      0              10.693206      116.20169    
     27500   3.138129       5.9145205      0              10.619416      114.78888    
     28000   3.1238209      6.118715       0              10.802158      116.74653    
     28500   3.0932948      6.1074649      0              10.745141      116.54078    
     29000   3.1073298      5.8512752      0              10.509994      114.1872     
     29500   3.10579        6.0824257      0              10.738836      116.47849    
     30000   3.1145809      6.0455915      0              10.715182      115.96932    
     30500   3.1268229      6.0138769      0              10.701821      115.99093    
     31000   3.0604044      6.0850555      0              10.673421      116.37356    
     31500   3.0815476      6.0437091      0              10.663774      116.05581    
     32000   3.1182742      6.0130664      0              10.688194      115.56571    
     32500   3.1483041      6.0493275      0              10.769478      116.11315    
     33000   3.0209092      6.1476908      0              10.676842      117.24009    
     33500   3.0821175      6.0859851      0              10.706904      116.71347    
     34000   3.1320237      6.0316887      0              10.72743       115.93679    
     34500   3.0502272      6.0534767      0              10.626583      116.21224    
     35000   3.0934515      6.1540325      0              10.791944      117.09767    
     35500   3.0455599      6.1384232      0              10.704532      116.9812     
     36000   3.0914665      5.9606465      0              10.595582      115.08507    
     36500   3.1236864      6.0468793      0              10.730121      116.25781    
     37000   3.1888976      5.9568402      0              10.737851      115.35392    
     37500   3.0968726      5.9924853      0              10.635526      115.41671    
     38000   3.0839347      5.9744664      0              10.59811       115.28642    
     38500   3.1935247      6.0054738      0              10.793422      116.11919    
     39000   3.053558       6.1016059      0              10.679706      116.71469    
     39500   3.1179687      6.0034491      0              10.678118      115.88418    
     40000   3.0621909      5.9809995      0              10.572043      115.34005    
     40500   3.1263097      6.0418947      0              10.72907       116.31197    
     41000   3.1067582      6.0061946      0              10.664056      115.40815    
     41500   3.0375979      6.1234681      0              10.67764       116.58084    
     42000   3.0812714      6.0838252      0              10.703475      116.25314    
     42500   3.1157316      6.0139296      0              10.685245      115.83553    
     43000   3.1194115      6.0076037      0              10.684436      115.89738    
     43500   3.1072841      5.9954297      0              10.65408       115.38227    
     44000   3.1315726      6.0455508      0              10.740616      116.38972    
     44500   3.0741329      6.0540519      0              10.663         116.26917    
     45000   3.1108278      5.9858055      0              10.649769      115.47057    
     45500   3.0364142      6.1116961      0              10.664093      116.94916    
     46000   3.0010387      6.2189938      0              10.718354      117.87219    
     46500   3.0885105      6.0915635      0              10.722067      116.83728    
     47000   3.0378937      6.1727914      0              10.727407      117.73232    
     47500   3.076906       6.0258639      0              10.638969      116.27355    
     48000   3.1545336      6.0137871      0              10.743277      115.65132    
     48500   3.0724395      6.0156559      0              10.622065      115.87207    
     49000   3.0400062      6.0803349      0              10.638118      116.31631    
     49500   3.0657281      6.1205278      0              10.716874      116.70407    
     50000   2.9902042      6.1387004      0              10.621817      116.69004    
Loop time of 10.249 on 3 procs for 50000 steps with 2048 atoms

Performance: 4215039.453 tau/day, 4878.518 timesteps/s, 9.991 Matom-step/s
99.6% CPU use with 3 MPI tasks x 1 OpenMP threads

MPI task timing breakdown:
Section |  min time  |  avg time  |  max time  |%varavg| %total
---------------------------------------------------------------
Pair    | 2.7797     | 2.8994     | 3.0273     |   5.9 | 28.29
Neigh   | 4.3813     | 4.9995     | 5.3557     |  19.6 | 48.78
Comm    | 1.1992     | 1.6003     | 2.3484     |  41.9 | 15.61
Output  | 0.0017801  | 0.0023898  | 0.003602   |   1.8 |  0.02
Modify  | 0.48117    | 0.49703    | 0.51879    |   2.3 |  4.85
Other   |            | 0.2504     |            |       |  2.44

Nlocal:        682.667 ave         705 max         640 min
Histogram: 1 0 0 0 0 0 0 0 0 2
Nghost:        949.667 ave         990 max         926 min
Histogram: 1 1 0 0 0 0 0 0 0 1
Neighs:        4203.33 ave        4337 max        3949 min
Histogram: 1 0 0 0 0 0 0 0 0 2

Total # of neighbors = 12610
Ave neighs/atom = 6.1572266
Neighbor list builds = 20706
Dangerous builds = 0

unfix 1
dump           1 all atom ${run_steps} 3dWCA_T${final_temperature}_d${density}_N${run_steps}.lammpstrj
dump           1 all atom 100000 3dWCA_T${final_temperature}_d${density}_N${run_steps}.lammpstrj
dump           1 all atom 100000 3dWCA_T0.1_d${density}_N${run_steps}.lammpstrj
dump           1 all atom 100000 3dWCA_T0.1_d1.5_N${run_steps}.lammpstrj
dump           1 all atom 100000 3dWCA_T0.1_d1.5_N100000.lammpstrj
dump           2 all dcd ${thermo_time} 3dWCA_T${final_temperature}_d${density}_N${run_steps}.dcd
dump           2 all dcd 500 3dWCA_T${final_temperature}_d${density}_N${run_steps}.dcd
dump           2 all dcd 500 3dWCA_T0.1_d${density}_N${run_steps}.dcd
dump           2 all dcd 500 3dWCA_T0.1_d1.5_N${run_steps}.dcd
dump           2 all dcd 500 3dWCA_T0.1_d1.5_N100000.dcd
fix 1 all nvt temp ${initial_temperature} ${final_temperature} ${tau}
fix 1 all nvt temp 3 ${final_temperature} ${tau}
fix 1 all nvt temp 3 0.1 ${tau}
fix 1 all nvt temp 3 0.1 1

run ${run_steps}
run 100000
Generated 0 of 0 mixed pair_coeff terms from geometric mixing rule
Per MPI rank memory allocation (min/avg/max) = 3.195 | 3.196 | 3.197 Mbytes
   Step          Temp          E_pair         E_mol          TotEng         Press     
     50000   2.9902042      6.1387004      0              10.621817      116.69004    
     50500   3.0959977      6.1089309      0              10.75066       116.82305    
     51000   3.0518901      6.0500353      0              10.625635      115.91682    
     51500   2.9455859      6.094556       0              10.510777      116.23234    
     52000   2.9896818      5.9583047      0              10.440638      114.94327    
     52500   3.0391365      5.9670505      0              10.523529      115.07325    
     53000   2.9365138      5.9717075      0              10.374327      115.1643     
     53500   2.9346655      5.9493199      0              10.349169      114.80051    
     54000   3.0113656      5.8272541      0              10.342097      113.20178    
     54500   2.9484665      5.7651993      0              10.185739      113.03183    
     55000   2.9251969      5.8192903      0              10.204943      113.30228    
     55500   2.8653786      5.8007521      0              10.096721      113.01193    
     56000   2.9146188      5.7070866      0              10.07688       112.24357    
     56500   2.8641896      5.7565786      0              10.050765      112.74743    
     57000   2.8585126      5.7051269      0              9.9908021      112.22102    
     57500   2.8163625      5.7704492      0              9.9929302      112.74306    
     58000   2.8130292      5.6572607      0              9.8747442      111.481      
     58500   2.7801377      5.686923       0              9.8550933      111.34439    
     59000   2.7806139      5.6161382      0              9.7850225      110.74374    
     59500   2.7530608      5.6061628      0              9.7337376      110.44794    
     60000   2.7547856      5.6118922      0              9.742053       110.49889    
     60500   2.6554045      5.6673624      0              9.6485243      111.22168    
     61000   2.7568272      5.4797974      0              9.613019       109.4805     
     61500   2.729644       5.4782563      0              9.5707231      109.06921    
     62000   2.6635306      5.5599517      0              9.5532967      109.76738    
     62500   2.7022255      5.4045423      0              9.4559013      108.55453    
     63000   2.657557       5.431804       0              9.4161931      108.48485    
     63500   2.6717795      5.3402971      0              9.3460095      107.88447    
     64000   2.7072503      5.3012451      0              9.3601377      107.14345    
     64500   2.5390758      5.433806       0              9.2405601      108.70607    
     65000   2.6684359      5.2097484      0              9.2104479      106.20134    
     65500   2.5963174      5.2964113      0              9.1889859      107.16246    
     66000   2.6505668      5.2145066      0              9.1884154      105.96734    
     66500   2.5325053      5.2372955      0              9.0341986      106.22233    
     67000   2.5761592      5.1546842      0              9.0170362      105.46597    
     67500   2.4662337      5.2894668      0              8.9870111      106.78402    
     68000   2.4571123      5.2324764      0              8.9163452      106.31886    
     68500   2.4902894      5.1312106      0              8.8648207      105.11426    
     69000   2.4931273      5.1017239      0              8.8395889      104.66303    
     69500   2.4230001      5.1785042      0              8.8112297      105.02461    
     70000   2.4642051      5.0322039      0              8.7267067      104.11724    
     70500   2.4301442      5.0429144      0              8.6863507      103.97977    
     71000   2.3819603      5.1011064      0              8.6723023      104.49623    
     71500   2.4518438      4.9287824      0              8.6047522      102.86063    
     72000   2.3448775      5.0056428      0              8.5212417      103.60206    
     72500   2.3547716      4.990508       0              8.5209407      102.94068    
     73000   2.3054444      4.9918239      0              8.4483019      103.30572    
     73500   2.3890624      4.8268438      0              8.4086876      101.53644    
     74000   2.3405985      4.8233897      0              8.3325731      101.10863    
     74500   2.2444601      4.964887       0              8.3299332      103.00234    
     75000   2.2842449      4.8347854      0              8.2594797      101.0872     
     75500   2.2951571      4.7887742      0              8.2298288      100.92597    
     76000   2.2588158      4.7798416      0              8.166411       100.60553    
     76500   2.2350618      4.7660211      0              8.1169768      100.57642    
     77000   2.18571        4.7785356      0              8.0554997      100.67503    
     77500   2.2284874      4.6546925      0              7.9957914      99.110801    
     78000   2.2084995      4.6816522      0              7.9927839      99.701442    
     78500   2.2030742      4.6556374      0              7.9586352      99.090835    
     79000   2.1624012      4.621876       0              7.8638941      98.685379    
     79500   2.1387602      4.5705273      0              7.7771011      98.102442    
     80000   2.1766688      4.5277534      0              7.7911624      97.672145    
     80500   2.1145264      4.6150301      0              7.7852709      98.51826     
     81000   2.1232335      4.5214955      0              7.7047906      97.489633    
     81500   2.1167867      4.4889106      0              7.6625403      97.113783    
     82000   2.0894388      4.4752187      0              7.6078466      96.960779    
     82500   2.0281804      4.5116259      0              7.552411       97.341417    
     83000   2.0854841      4.3940783      0              7.520777       95.87099     
     83500   2.0559976      4.4086346      0              7.4911252      96.344928    
     84000   1.9954998      4.3869802      0              7.3787684      95.604432    
     84500   1.9865566      4.2992498      0              7.2776297      94.786804    
     85000   2.0059259      4.4544863      0              7.461906       96.523407    
     85500   1.9968964      4.2231859      0              7.2170679      93.694859    
     86000   2.0031252      4.3830102      0              7.3862309      95.584478    
     86500   1.9217627      4.2348417      0              7.1160781      93.60987     
     87000   1.9048677      4.2872395      0              7.1431459      94.165909    
     87500   1.9395681      4.1884863      0              7.0964179      93.179143    
     88000   1.9176191      4.2101713      0              7.0851955      93.394709    
     88500   1.930289       4.1141054      0              7.0081251      92.434526    
     89000   1.8551626      4.2086042      0              6.9899893      93.445117    
     89500   1.8742338      4.1970484      0              7.0070263      93.441541    
     90000   1.8554915      4.0251502      0              6.8070286      90.980067    
     90500   1.8918025      4.1269206      0              6.9632388      92.450812    
     91000   1.7720947      4.082744       0              6.7395882      91.879143    
     91500   1.8156224      4.08916        0              6.8112638      91.939426    
     92000   1.7695402      4.0192728      0              6.6722871      90.980841    
     92500   1.8256809      3.964214       0              6.7013983      90.371767    
     93000   1.7838301      3.8885293      0              6.562968       89.423617    
     93500   1.7787297      3.9971439      0              6.6639357      90.910414    
     94000   1.7108904      3.8361764      0              6.4012589      88.677686    
     94500   1.7158707      3.9448795      0              6.5174289      89.825652    
     95000   1.6504058      3.7838788      0              6.2582788      87.899903    
     95500   1.6404849      3.8653419      0              6.3248677      89.074714    
     96000   1.6915698      3.741935       0              6.2780507      87.542653    
     96500   1.6291242      3.7543847      0              6.1968779      87.440846    
     97000   1.6887679      3.7807509      0              6.3126658      88.082268    
     97500   1.6300348      3.7136078      0              6.1574661      87.071904    
     98000   1.5845652      3.6767856      0              6.0524729      86.61991     
     98500   1.6112218      3.6539058      0              6.0695584      86.491463    
     99000   1.5718299      3.6577497      0              6.0143433      86.366511    
     99500   1.6381311      3.6554396      0              6.1114364      86.460695    
    100000   1.5361644      3.5960277      0              5.8991491      85.533041    
    100500   1.5327594      3.7106274      0              6.0086439      86.901082    
    101000   1.4933149      3.5797862      0              5.8186648      85.152886    
    101500   1.5320792      3.4945337      0              5.7915304      84.183493    
    102000   1.492031       3.5091668      0              5.7461205      84.421095    
    102500   1.4872097      3.5329531      0              5.7626784      84.658415    
    103000   1.4666876      3.4384302      0              5.6373874      83.370117    
    103500   1.4403686      3.4464157      0              5.6059136      83.409369    
    104000   1.435179       3.4310402      0              5.5827575      83.476461    
    104500   1.3830933      3.3481457      0              5.4217726      82.28216     
    105000   1.4076191      3.3849307      0              5.4953285      82.615395    
    105500   1.3864703      3.315885       0              5.394575       81.735215    
    106000   1.3437567      3.3378466      0              5.3524975      82.00814     
    106500   1.3622472      3.2832181      0              5.3255913      81.321748    
    107000   1.3314191      3.2492006      0              5.245354       80.737697    
    107500   1.3009053      3.272007       0              5.2224122      81.238522    
    108000   1.3592934      3.2192886      0              5.2572331      80.591837    
    108500   1.2941438      3.2207376      0              5.1610054      80.536258    
    109000   1.3014865      3.1708239      0              5.1221004      79.790825    
    109500   1.277848       3.1441763      0              5.0600124      79.648645    
    110000   1.2606701      3.1743247      0              5.0644065      79.831888    
    110500   1.2380719      3.1200422      0              4.9762432      79.029362    
    111000   1.2683073      3.0688637      0              4.9703957      78.597384    
    111500   1.225688       3.0531746      0              4.8908089      78.473606    
    112000   1.2276549      3.126817       0              4.9674002      79.251634    
    112500   1.1938418      2.9780112      0              4.7678995      77.214127    
    113000   1.1903537      2.9543913      0              4.73905        77.0261      
    113500   1.1889642      2.906817       0              4.6893925      76.186273    
    114000   1.142825       2.8805662      0              4.5939666      76.011623    
    114500   1.1500065      2.9019285      0              4.6260959      76.19973     
    115000   1.0895809      2.8468949      0              4.4804682      75.520989    
    115500   1.1449226      2.8375875      0              4.5541329      75.380107    
    116000   1.0670313      2.8037821      0              4.4035476      74.821477    
    116500   1.0738295      2.8394791      0              4.4494369      75.294998    
    117000   1.0783251      2.7281615      0              4.3448593      74.009113    
    117500   1.0642325      2.8029056      0              4.3984749      74.987841    
    118000   1.0459252      2.6850736      0              4.2531954      73.366361    
    118500   1.0225016      2.6946564      0              4.22766        73.511452    
    119000   1.0030074      2.6722439      0              4.1760204      72.889429    
    119500   0.9726661      2.6262171      0              4.0845039      72.491552    
    120000   0.97951242     2.6165048      0              4.085056       72.393912    
    120500   0.94892594     2.6153341      0              4.038028       72.341652    
    121000   0.96902973     2.5585528      0              4.0113877      71.589046    
    121500   0.91718839     2.5344218      0              3.9095326      71.140964    
    122000   0.92753259     2.5309236      0              3.9215432      71.102095    
    122500   0.87452988     2.5133172      0              3.8244715      70.805731    
    123000   0.89311064     2.5212385      0              3.8602503      71.056192    
    123500   0.88950405     2.4188181      0              3.7524227      69.581433    
    124000   0.86272163     2.4624048      0              3.7558553      70.167954    
    124500   0.84433818     2.3971551      0              3.6630439      69.237576    
    125000   0.8145067      2.4427074      0              3.6638709      69.86148     
    125500   0.79487908     2.3619912      0              3.5537276      68.522806    
    126000   0.82542804     2.3588168      0              3.5963543      68.693116    
    126500   0.79533951     2.2757245      0              3.4681512      67.6832      
    127000   0.77770145     2.2917585      0              3.4577411      67.832828    
    127500   0.75046286     2.2673925      0              3.3925372      67.366116    
    128000   0.73346422     2.2666303      0              3.3662895      67.442151    
    128500   0.73034825     2.2029911      0              3.2979786      66.59086     
    129000   0.73311094     2.188399       0              3.2875285      66.328422    
    129500   0.68536414     2.1473418      0              3.174886       65.660261    
    130000   0.6828799      2.1494088      0              3.1732285      65.688128    
    130500   0.66606335     2.0941552      0              3.0927623      65.000271    
    131000   0.65699076     2.0699476      0              3.0549526      64.719139    
    131500   0.63508541     2.0566624      0              3.0088253      64.475147    
    132000   0.62119258     2.0311305      0              2.9624644      64.013306    
    132500   0.61772658     1.9991745      0              2.9253119      63.691992    
    133000   0.59265459     1.9949619      0              2.8835097      63.643211    
    133500   0.58403367     1.9595541      0              2.8351768      63.101438    
    134000   0.56611989     1.8907147      0              2.7394799      62.095149    
    134500   0.57074028     1.9055389      0              2.7612313      62.446524    
    135000   0.54034169     1.8558566      0              2.6659734      61.683446    
    135500   0.52724229     1.9090955      0              2.6995727      62.371576    
    136000   0.50234598     1.8280733      0              2.5812243      61.211425    
    136500   0.47906453     1.7883979      0              2.5066438      60.728418    
    137000   0.49317443     1.7663907      0              2.5057911      60.460709    
    137500   0.45664709     1.7282329      0              2.4128691      59.91666     
    138000   0.44238035     1.7174094      0              2.380656       59.783599    
    138500   0.4364978      1.6858764      0              2.3403034      59.294665    
    139000   0.41691728     1.6834225      0              2.3084931      59.176301    
    139500   0.40379705     1.640497       0              2.2458968      58.683985    
    140000   0.38578307     1.6145232      0              2.1929153      58.297854    
    140500   0.37256885     1.6013874      0              2.1599678      58.120349    
    141000   0.36682254     1.5618684      0              2.1118335      57.564885    
    141500   0.34511288     1.5378273      0              2.0552438      57.258876    
    142000   0.33156604     1.5226054      0              2.0197116      57.118028    
    142500   0.3226526      1.4882072      0              1.9719498      56.602707    
    143000   0.30742267     1.4656745      0              1.9265833      56.342717    
    143500   0.29204454     1.4405113      0              1.8783642      55.970947    
    144000   0.2748375      1.418979       0              1.8310339      55.670909    
    144500   0.25960526     1.3930489      0              1.7822666      55.350447    
    145000   0.24763761     1.3635938      0              1.7348688      54.988186    
    145500   0.23503627     1.3354218      0              1.687804       54.667222    
    146000   0.21601911     1.3179437      0              1.6418142      54.410515    
    146500   0.20650461     1.2818215      0              1.5914272      54.009877    
    147000   0.19367039     1.2551515      0              1.5455153      53.719366    
    147500   0.16861247     1.2468425      0              1.4996377      53.577288    
    148000   0.1649847      1.2044144      0              1.4517707      53.152299    
    148500   0.14727535     1.1836846      0              1.4044898      52.901656    
    149000   0.13198156     1.1606468      0              1.3585225      52.663687    
    149500   0.11621699     1.1381917      0              1.312432       52.416128    
    150000   0.10282455     1.1111974      0              1.2653589      52.17527     
Loop time of 14.2963 on 3 procs for 100000 steps with 2048 atoms

Performance: 6043542.667 tau/day, 6994.841 timesteps/s, 14.325 Matom-step/s
99.6% CPU use with 3 MPI tasks x 1 OpenMP threads

MPI task timing breakdown:
Section |  min time  |  avg time  |  max time  |%varavg| %total
---------------------------------------------------------------
Pair    | 5.195      | 5.4472     | 5.7049     |   8.9 | 38.10
Neigh   | 4.5002     | 5.1        | 5.4444     |  18.8 | 35.67
Comm    | 1.7768     | 2.2988     | 3.1657     |  40.7 | 16.08
Output  | 0.051453   | 0.051977   | 0.05301    |   0.3 |  0.36
Modify  | 0.97601    | 0.99762    | 1.0211     |   1.8 |  6.98
Other   |            | 0.4007     |            |       |  2.80

Nlocal:        682.667 ave         706 max         640 min
Histogram: 1 0 0 0 0 0 0 0 0 2
Nghost:        941.667 ave         985 max         918 min
Histogram: 2 0 0 0 0 0 0 0 0 1
Neighs:        4096.33 ave        4237 max        3837 min
Histogram: 1 0 0 0 0 0 0 0 0 2

Total # of neighbors = 12289
Ave neighs/atom = 6.0004883
Neighbor list builds = 22227
Dangerous builds = 0
Total wall time: 0:00:24
