ITEM: TIMESTEP
100000
ITEM: NUMBER OF ATOMS
400
ITEM: BOX BOUNDS pp pp pp
0.0000000000000000e+00 2.3904572186687872e+01
0.0000000000000000e+00 2.3904572186687872e+01
-5.9761430466719678e-01 5.9761430466719678e-01
ITEM: ATOMS id type xs ys zs
257 1 0.269034 0.478256 0.5
42 1 0.178789 0.990295 0.5
48 1 0.096308 0.948845 0.5
11 1 0.295393 0.154548 0.5
297 1 0.0180556 0.666743 0.5
76 1 0.0487291 0.949405 0.5
131 1 0.0305112 0.489379 0.5
357 1 0.130343 0.973185 0.5
37 1 0.100814 0.325258 0.5
371 1 0.252564 0.0223815 0.5
62 1 0.328207 0.517488 0.5
58 1 0.302426 0.062318 0.5
348 1 0.229332 0.300735 0.5
6 1 0.254569 0.080838 0.5
80 1 0.131363 0.104531 0.5
148 1 0.0638517 0.987354 0.5
119 1 0.204047 0.472868 0.5
84 1 0.0266762 0.00866153 0.5
172 1 0.149401 0.0186035 0.5
202 1 0.171454 0.0784582 0.5
153 1 0.114479 0.0479207 0.5
108 1 0.0705304 0.0469778 0.5
117 1 0.103472 0.00269348 0.5
219 1 -0.000730134 0.41085 0.5
298 1 0.0367471 0.873455 0.5
372 1 0.0563057 0.12284 0.5
89 1 0.0294249 0.187901 0.5
115 1 0.121419 0.143883 0.5
199 1 0.0923243 0.0948583 0.5
289 1 0.17278 0.57576 0.5
125 1 0.181237 0.334489 0.5
183 1 0.332386 0.457496 0.5
385 1 0.045099 0.390421 0.5
187 1 0.0207963 0.287311 0.5
360 1 0.0418759 0.250288 0.5
320 1 0.306996 0.219381 0.5
91 1 0.028742 0.447144 0.5
362 1 0.0668495 0.299529 0.5
25 1 0.168098 0.290695 0.5
318 1 0.190625 0.200057 0.5
20 1 0.203991 0.259529 0.5
276 1 0.295505 0.437704 0.5
81 1 0.0763489 0.188192 0.5
238 1 0.092308 0.237523 0.5
229 1 0.303595 0.341871 0.5
137 1 0.117571 0.506508 0.5
284 1 0.184071 0.155999 0.5
145 1 0.225035 0.627195 0.5
377 1 0.272878 0.639244 0.5
55 1 0.198129 0.106291 0.5
128 1 0.154255 0.248769 0.5
246 1 0.331114 0.418807 0.5
71 1 0.2586 0.568099 0.5
369 1 0.120769 0.289337 0.5
315 1 0.219259 0.430172 0.5
159 1 0.0108537 0.716111 0.5
78 1 0.208501 0.0581408 0.5
190 1 0.11655 0.389208 0.5
130 1 0.24347 0.380322 0.5
261 1 0.133615 0.42896 0.5
124 1 0.0528485 0.3473 0.5
304 1 0.30746 0.603134 0.5
375 1 0.267766 0.192468 0.5
79 1 0.250112 0.256249 0.5
226 1 0.2176 0.585481 0.5
324 1 0.12916 0.6677 0.5
300 1 0.106288 0.719743 0.5
358 1 0.307474 0.930504 0.5
382 1 0.174609 0.505604 0.5
223 1 0.289905 0.300377 0.5
114 1 0.0999013 0.633732 0.5
46 1 0.144655 0.474076 0.5
282 1 0.177969 0.644595 0.5
327 1 0.181533 0.40074 0.5
263 1 0.233787 0.501345 0.5
364 1 0.200224 0.546156 0.5
218 1 0.249375 0.70026 0.5
361 1 0.0107236 0.0786644 0.5
311 1 0.0501206 0.706644 0.5
182 1 0.0897521 0.773018 0.5
164 1 0.0843523 0.677888 0.5
399 1 0.275842 0.832927 0.5
142 1 0.0167052 0.535496 0.5
147 1 0.202223 0.676234 0.5
104 1 0.0533636 0.817907 0.5
339 1 0.257053 0.342623 0.5
293 1 0.131421 0.592442 0.5
87 1 0.329959 0.296514 0.5
56 1 0.0692769 0.424693 0.5
387 1 0.235436 0.162795 0.5
325 1 0.282992 0.765885 0.5
162 1 0.299219 0.725087 0.5
323 1 0.00713718 0.808604 0.5
228 1 0.244542 0.750362 0.5
345 1 0.313659 0.865605 0.5
64 1 0.236758 0.218309 0.5
45 1 0.0558357 0.750375 0.5
380 1 0.151025 0.835688 0.5
287 1 0.180861 0.783021 0.5
129 1 0.31597 0.816695 0.5
367 1 0.000685177 0.766143 0.5
245 1 0.197167 0.736024 0.5
185 1 0.173838 0.87236 0.5
248 1 0.250848 0.983356 0.5
230 1 0.0200684 0.909886 0.5
234 1 0.154172 0.732431 0.5
335 1 0.134124 0.778126 0.5
68 1 0.0828657 0.846135 0.5
90 1 0.18166 0.924632 0.5
24 1 0.254307 0.939573 0.5
373 1 0.0153641 0.619449 0.5
349 1 0.226459 0.836341 0.5
224 1 0.293797 0.683077 0.5
396 1 0.111997 0.818756 0.5
193 1 0.134924 0.929993 0.5
391 1 0.213187 0.0195721 0.5
393 1 0.106814 0.901141 0.5
103 1 0.278094 0.898182 0.5
326 1 0.1439 0.17991 0.5
212 1 0.119703 0.861446 0.5
93 1 0.211458 0.952906 0.5
135 1 0.0782701 0.596355 0.5
127 1 0.293839 0.0121282 0.5
155 1 0.0652251 0.906497 0.5
21 1 0.239376 0.8855 0.5
170 1 0.137049 0.550984 0.5
394 1 0.0356857 0.581769 0.5
225 1 0.0812541 0.554216 0.5
174 1 0.300442 0.547941 0.5
239 1 0.0973225 0.464661 0.5
374 1 0.30668 0.110164 0.5
94 1 0.284557 0.40155 0.5
107 1 0.324547 0.967801 0.5
235 1 0.323981 0.380302 0.5
370 1 0.324265 0.768565 0.5
179 1 0.51366 0.990017 0.5
83 1 0.59101 0.926551 0.5
233 1 0.450552 0.114168 0.5
201 1 0.530236 0.101114 0.5
126 1 0.604531 0.0320208 0.5
347 1 0.611561 0.988887 0.5
150 1 0.410666 0.832736 0.5
189 1 0.457235 0.183618 0.5
181 1 0.396148 0.286702 0.5
249 1 0.526323 0.0611675 0.5
333 1 0.574425 0.973091 0.5
138 1 0.403419 0.538249 0.5
61 1 0.443396 0.277745 0.5
386 1 0.470925 0.233644 0.5
116 1 0.622159 0.805022 0.5
9 1 0.413929 0.162487 0.5
350 1 0.37537 0.0418305 0.5
86 1 0.579047 0.730709 0.5
273 1 0.526924 0.178755 0.5
332 1 0.34611 0.890108 0.5
66 1 0.457241 0.626539 0.5
51 1 0.367144 0.146111 0.5
317 1 0.590892 0.657605 0.5
195 1 0.466998 0.527583 0.5
359 1 0.525258 0.300416 0.5
33 1 0.604779 0.0868478 0.5
75 1 0.647102 0.842027 0.5
197 1 0.410619 0.407653 0.5
178 1 0.431382 0.238102 0.5
303 1 0.57889 0.118942 0.5
96 1 0.613561 0.615123 0.5
286 1 0.42995 0.331743 0.5
95 1 0.394393 0.210599 0.5
344 1 0.634164 0.0575666 0.5
270 1 0.369375 0.602814 0.5
43 1 0.542436 0.69338 0.5
216 1 0.515641 0.355247 0.5
222 1 0.526153 0.40603 0.5
177 1 0.550654 0.216701 0.5
366 1 0.638438 0.226754 0.5
200 1 0.485232 0.285261 0.5
334 1 0.628107 0.182329 0.5
175 1 0.655306 0.764558 0.5
106 1 0.517408 0.241374 0.5
34 1 0.406833 0.368676 0.5
242 1 0.373166 0.465197 0.5
30 1 0.420099 0.641905 0.5
251 1 0.654223 0.350769 0.5
22 1 0.489293 0.155458 0.5
308 1 0.451436 0.379396 0.5
10 1 0.520588 0.457057 0.5
353 1 0.555995 0.434186 0.5
121 1 0.372095 0.511044 0.5
285 1 0.361208 0.249815 0.5
274 1 0.391499 0.899206 0.5
381 1 0.582262 0.586482 0.5
204 1 0.580954 0.182913 0.5
295 1 0.480657 0.489003 0.5
53 1 0.585028 0.397471 0.5
69 1 0.440557 0.027605 0.5
72 1 0.386802 0.0926779 0.5
258 1 0.412103 0.480142 0.5
252 1 0.567985 0.33628 0.5
322 1 0.615744 0.434618 0.5
111 1 0.548551 0.653185 0.5
307 1 0.345811 0.109261 0.5
156 1 0.631531 0.930542 0.5
221 1 0.343468 0.638083 0.5
354 1 0.369546 0.407322 0.5
240 1 0.600744 0.496328 0.5
292 1 0.65817 0.129501 0.5
398 1 0.446607 0.568987 0.5
191 1 0.489424 0.425789 0.5
321 1 0.445264 0.43094 0.5
253 1 0.392173 0.954575 0.5
302 1 0.475741 0.334498 0.5
250 1 0.558185 0.277031 0.5
275 1 0.335631 0.570325 0.5
390 1 0.561349 0.506425 0.5
139 1 0.360378 0.735564 0.5
141 1 0.612389 0.884322 0.5
309 1 0.634334 0.293078 0.5
14 1 0.368889 0.819673 0.5
392 1 0.536321 0.557971 0.5
184 1 0.643305 0.663703 0.5
123 1 0.37832 0.685679 0.5
15 1 0.516195 0.515074 0.5
85 1 0.504324 0.604749 0.5
207 1 0.385337 0.781485 0.5
49 1 0.461814 0.810097 0.5
365 1 0.642185 0.471356 0.5
8 1 0.559743 0.892969 0.5
54 1 0.426043 0.690775 0.5
50 1 0.464926 0.666826 0.5
208 1 0.588506 0.24969 0.5
165 1 0.433193 0.88174 0.5
346 1 0.419474 0.736417 0.5
306 1 0.423855 0.929826 0.5
47 1 0.428898 0.788664 0.5
283 1 0.548028 0.610731 0.5
60 1 0.507292 0.923534 0.5
158 1 0.493472 0.695899 0.5
227 1 0.465136 0.916396 0.5
70 1 0.553634 0.836673 0.5
67 1 0.581657 0.546159 0.5
247 1 0.359401 0.929891 0.5
29 1 0.549741 0.935975 0.5
143 1 0.63051 0.727208 0.5
241 1 0.523998 0.809066 0.5
41 1 0.471742 0.852172 0.5
363 1 0.632265 0.551629 0.5
59 1 0.457091 0.748417 0.5
99 1 0.55941 0.779085 0.5
279 1 0.466208 0.074033 0.5
400 1 0.613857 0.137152 0.5
52 1 0.424143 0.988192 0.5
329 1 0.513873 0.881993 0.5
157 1 0.504229 0.769834 0.5
23 1 0.423942 0.0746175 0.5
217 1 0.363332 0.993034 0.5
140 1 0.484283 0.0377477 0.5
389 1 0.507242 0.654035 0.5
281 1 0.466598 0.990255 0.5
316 1 0.658641 0.431361 0.5
163 1 0.652798 0.99379 0.5
256 1 0.336632 0.0260902 0.5
356 1 0.334445 0.689599 0.5
63 1 0.782203 0.732844 0.5
120 1 0.917567 0.354275 0.5
383 1 0.808342 0.977449 0.5
110 1 0.773675 0.0122318 0.5
97 1 0.904638 0.0748034 0.5
3 1 0.860641 0.081077 0.5
237 1 0.88073 0.040858 0.5
319 1 0.91262 0.178864 0.5
277 1 0.825242 0.106711 0.5
161 1 0.823133 0.0598231 0.5
18 1 0.733442 0.163959 0.5
132 1 0.666315 0.175751 0.5
136 1 0.823855 0.208059 0.5
113 1 0.869032 0.964855 0.5
203 1 0.71345 0.427593 0.5
231 1 0.984302 0.0426087 0.5
267 1 0.730152 0.909183 0.5
180 1 0.782498 0.820822 0.5
100 1 0.745023 0.956459 0.5
154 1 0.734758 0.112469 0.5
260 1 0.807353 0.252604 0.5
196 1 0.829059 0.2995 0.5
198 1 0.708685 0.652876 0.5
214 1 0.88558 0.21441 0.5
294 1 0.734401 0.543668 0.5
352 1 0.754386 0.256182 0.5
77 1 0.678594 0.304941 0.5
343 1 0.815048 0.937195 0.5
288 1 0.731105 0.0706502 0.5
134 1 0.792996 0.337485 0.5
215 1 0.859291 0.131869 0.5
98 1 0.857154 0.182758 0.5
206 1 0.94771 0.955677 0.5
262 1 0.949428 0.331166 0.5
19 1 0.775239 0.138852 0.5
92 1 0.961803 0.256793 0.5
351 1 0.858837 0.924843 0.5
26 1 0.755758 0.49138 0.5
169 1 0.771428 0.191 0.5
278 1 0.78533 0.29178 0.5
149 1 0.684805 0.0987966 0.5
36 1 1.00044 0.339657 0.5
176 1 0.672909 0.63154 0.5
194 1 0.804723 0.564794 0.5
210 1 0.920977 0.0378574 0.5
57 1 0.79525 0.431027 0.5
109 1 0.777132 0.375112 0.5
213 1 0.713822 0.274938 0.5
243 1 0.670096 0.388056 0.5
112 1 0.878135 0.266448 0.5
44 1 0.731694 0.385877 0.5
259 1 0.744898 0.310457 0.5
376 1 0.835355 0.352577 0.5
5 1 0.756813 0.577877 0.5
31 1 0.867727 0.323396 0.5
342 1 0.979005 0.1725 0.5
244 1 0.813877 0.163997 0.5
268 1 0.868738 0.374431 0.5
73 1 0.798168 0.51822 0.5
7 1 0.826619 0.462601 0.5
205 1 0.836135 0.407897 0.5
151 1 0.940954 0.515364 0.5
314 1 0.957893 0.214953 0.5
340 1 0.843325 0.535696 0.5
4 1 0.898734 0.401898 0.5
166 1 0.941784 0.40252 0.5
122 1 0.909029 0.949748 0.5
13 1 0.840977 0.58817 0.5
331 1 0.943351 0.472505 0.5
171 1 0.866342 0.440696 0.5
65 1 0.898474 0.507497 0.5
17 1 0.686618 0.946612 0.5
146 1 0.999495 0.235614 0.5
152 1 0.933471 0.857256 0.5
38 1 0.921649 0.239731 0.5
211 1 0.828647 0.63027 0.5
118 1 0.883681 0.574995 0.5
313 1 0.980039 0.491377 0.5
101 1 0.990607 0.585608 0.5
220 1 0.898527 0.908036 0.5
16 1 0.81516 0.670619 0.5
379 1 0.969844 0.549314 0.5
188 1 0.913724 0.443179 0.5
39 1 0.998288 0.137389 0.5
255 1 0.712842 0.342552 0.5
32 1 0.749523 0.638755 0.5
271 1 0.923814 0.693185 0.5
264 1 0.950051 0.762477 0.5
1 1 0.84351 0.00961417 0.5
236 1 0.690356 0.738999 0.5
102 1 0.967624 0.674614 0.5
28 1 0.720707 0.870231 0.5
265 1 0.694939 0.569374 0.5
291 1 0.701021 0.796862 0.5
168 1 0.911642 0.744486 0.5
133 1 0.92877 0.615064 0.5
88 1 0.899654 1.0014 0.5
368 1 0.981368 0.295999 0.5
336 1 0.678663 0.527717 0.5
232 1 0.956647 0.722633 0.5
384 1 0.900023 0.138242 0.5
209 1 0.737624 0.686214 0.5
167 1 0.78672 0.622839 0.5
272 1 0.827181 0.87212 0.5
296 1 0.91013 0.314386 0.5
2 1 0.87637 0.784981 0.5
186 1 0.857754 0.682355 0.5
388 1 0.902288 0.817996 0.5
312 1 0.949772 0.0995842 0.5
12 1 0.865446 0.743117 0.5
40 1 0.737455 0.756819 0.5
337 1 0.974203 0.884666 0.5
395 1 0.708291 0.478593 0.5
35 1 0.687808 0.836678 0.5
310 1 0.679214 0.234721 0.5
290 1 0.944334 0.815649 0.5
173 1 0.775191 0.924417 0.5
266 1 0.728991 0.225902 0.5
269 1 0.88389 0.856487 0.5
105 1 0.772135 0.870499 0.5
330 1 0.712716 0.989071 0.5
280 1 0.825116 0.721331 0.5
341 1 0.778688 0.772766 0.5
299 1 0.829451 0.802199 0.5
338 1 0.931492 0.568953 0.5
305 1 0.776295 0.0807325 0.5
144 1 0.952976 0.14261 0.5
328 1 0.968602 0.366002 0.5
378 1 0.73494 0.829463 0.5
82 1 0.674406 0.690904 0.5
160 1 0.947657 0.00575481 0.5
27 1 0.966822 0.63344 0.5
301 1 0.755709 0.450109 0.5
74 1 0.710569 0.0337153 0.5
355 1 0.719731 0.60581 0.5
397 1 0.67433 0.898969 0.5
254 1 0.996857 0.953347 0.5
192 1 0.996898 0.847421 0.5
