ITEM: TIMESTEP
100000
ITEM: NUMBER OF ATOMS
400
ITEM: BOX BOUNDS pp pp pp
0.0000000000000000e+00 2.1081851067789195e+01
0.0000000000000000e+00 2.1081851067789195e+01
-5.2704627669472992e-01 5.2704627669472992e-01
ITEM: ATOMS id type xs ys zs
8 1 0.0195453 0.0113835 0.5
161 1 0.0689781 0.00558592 0.5
140 1 0.165911 0.0177099 0.5
227 1 0.220769 0.00429633 0.5
323 1 0.270505 0.00138329 0.5
201 1 0.322902 0.0228772 0.5
343 1 0.11744 0.0378505 0.5
56 1 0.208074 0.0566027 0.5
348 1 0.2642 0.0450911 0.5
91 1 0.0281926 0.0661412 0.5
234 1 0.093238 0.0775969 0.5
136 1 0.163711 0.0676204 0.5
92 1 0.301021 0.082945 0.5
131 1 0.0543428 0.111558 0.5
374 1 0.106329 0.12082 0.5
40 1 0.192136 0.107924 0.5
373 1 0.248453 0.0973952 0.5
360 1 0.00958917 0.143553 0.5
118 1 0.153421 0.130105 0.5
64 1 0.243289 0.142475 0.5
395 1 0.307032 0.136166 0.5
55 1 0.0574852 0.158436 0.5
112 1 0.105291 0.165938 0.5
23 1 0.154315 0.182681 0.5
311 1 0.199541 0.158092 0.5
148 1 0.279875 0.176358 0.5
278 1 0.325297 0.186575 0.5
122 1 0.0218395 0.19206 0.5
313 1 0.0675158 0.205634 0.5
386 1 0.120384 0.213574 0.5
253 1 0.194704 0.211234 0.5
251 1 0.241846 0.207713 0.5
35 1 0.0480316 0.247968 0.5
142 1 0.160906 0.243891 0.5
204 1 0.283282 0.226797 0.5
108 1 0.324942 0.244938 0.5
317 1 0.00558877 0.275845 0.5
340 1 0.113165 0.258898 0.5
153 1 0.195116 0.278952 0.5
21 1 0.254629 0.265807 0.5
57 1 0.297058 0.279083 0.5
149 1 0.0501704 0.295916 0.5
158 1 0.0971454 0.310998 0.5
356 1 0.143622 0.294859 0.5
50 1 0.00894249 0.323247 0.5
381 1 0.140942 0.343444 0.5
162 1 0.18887 0.337074 0.5
174 1 0.228301 0.314169 0.5
239 1 0.30775 0.325048 0.5
394 1 0.0225525 0.374542 0.5
190 1 0.0604239 0.350404 0.5
85 1 0.263999 0.353458 0.5
296 1 0.304043 0.374693 0.5
203 1 0.103578 0.387513 0.5
382 1 0.1717 0.379852 0.5
268 1 0.216255 0.387195 0.5
37 1 0.012637 0.425937 0.5
95 1 0.0641151 0.41546 0.5
2 1 0.104217 0.433868 0.5
165 1 0.153951 0.422823 0.5
262 1 0.270932 0.407744 0.5
321 1 0.320773 0.428 0.5
107 1 0.143237 0.468404 0.5
186 1 0.193145 0.460033 0.5
187 1 0.234477 0.439715 0.5
241 1 0.0290715 0.472185 0.5
223 1 0.0761386 0.472983 0.5
53 1 0.235924 0.486472 0.5
242 1 0.277417 0.469656 0.5
39 1 0.314848 0.497446 0.5
379 1 0.0464579 0.515443 0.5
273 1 0.0993742 0.513813 0.5
229 1 0.171776 0.505353 0.5
172 1 0.214573 0.527918 0.5
301 1 0.265363 0.520612 0.5
19 1 0.0202024 0.554065 0.5
88 1 0.103132 0.561795 0.5
212 1 0.143286 0.540456 0.5
101 1 0.303398 0.554757 0.5
6 1 0.0589847 0.576162 0.5
391 1 0.183844 0.563664 0.5
38 1 0.248007 0.570579 0.5
334 1 0.00883577 0.602111 0.5
34 1 0.118328 0.62367 0.5
59 1 0.16466 0.610463 0.5
32 1 0.216807 0.615426 0.5
22 1 0.263339 0.617894 0.5
177 1 0.31468 0.607965 0.5
338 1 0.0601509 0.625073 0.5
100 1 0.299655 0.65312 0.5
302 1 0.0398561 0.6715 0.5
29 1 0.0951792 0.675486 0.5
299 1 0.142172 0.663259 0.5
198 1 0.188127 0.663932 0.5
354 1 0.25093 0.67963 0.5
11 1 0.145247 0.711513 0.5
5 1 0.199766 0.712935 0.5
266 1 0.292769 0.702475 0.5
94 1 0.0392846 0.725181 0.5
358 1 0.0929981 0.726973 0.5
208 1 0.172544 0.749173 0.5
185 1 0.248226 0.727724 0.5
326 1 0.0176074 0.772159 0.5
189 1 0.062919 0.767119 0.5
70 1 0.214051 0.7735 0.5
26 1 0.304499 0.7619 0.5
67 1 0.112903 0.784566 0.5
249 1 0.17558 0.800923 0.5
84 1 0.257603 0.788141 0.5
62 1 0.321705 0.805144 0.5
133 1 0.0326621 0.828919 0.5
130 1 0.0787314 0.818255 0.5
150 1 0.123732 0.829016 0.5
240 1 0.227266 0.820281 0.5
263 1 0.275918 0.831296 0.5
341 1 0.0629561 0.862443 0.5
305 1 0.162564 0.8599 0.5
351 1 0.209326 0.872639 0.5
364 1 0.257194 0.871869 0.5
220 1 0.317375 0.85147 0.5
125 1 0.0149 0.889155 0.5
163 1 0.115415 0.88168 0.5
1 1 0.298927 0.896562 0.5
244 1 0.0711483 0.9073 0.5
309 1 0.110949 0.929893 0.5
147 1 0.187932 0.926949 0.5
33 1 0.241045 0.913505 0.5
389 1 0.0166181 0.938937 0.5
310 1 0.0688583 0.955603 0.5
41 1 0.232965 0.958141 0.5
350 1 0.290236 0.945349 0.5
210 1 0.124543 0.993169 0.5
400 1 0.165085 0.969362 0.5
151 1 0.325202 0.975768 0.5
132 1 0.458008 0.0288616 0.5
308 1 0.500945 0.0180517 0.5
205 1 0.555734 0.0122139 0.5
328 1 0.60673 0.0065618 0.5
207 1 0.355324 0.0521335 0.5
71 1 0.403214 0.0469344 0.5
300 1 0.536435 0.0591289 0.5
192 1 0.585676 0.0558504 0.5
398 1 0.639095 0.0493611 0.5
181 1 0.441536 0.0763338 0.5
392 1 0.488476 0.0633564 0.5
60 1 0.345163 0.101871 0.5
176 1 0.394995 0.0992176 0.5
277 1 0.521333 0.11687 0.5
362 1 0.565046 0.0955684 0.5
293 1 0.612458 0.102892 0.5
51 1 0.66374 0.0980335 0.5
219 1 0.351743 0.14828 0.5
397 1 0.401204 0.14979 0.5
336 1 0.447935 0.131596 0.5
171 1 0.488484 0.151019 0.5
102 1 0.576862 0.152986 0.5
139 1 0.640268 0.141303 0.5
143 1 0.453814 0.182628 0.5
337 1 0.531766 0.167409 0.5
316 1 0.614069 0.17974 0.5
65 1 0.376255 0.19203 0.5
27 1 0.496807 0.209681 0.5
324 1 0.57347 0.204552 0.5
371 1 0.661664 0.197115 0.5
365 1 0.372022 0.239835 0.5
290 1 0.414282 0.219989 0.5
209 1 0.461798 0.239956 0.5
215 1 0.532578 0.235826 0.5
202 1 0.627519 0.238672 0.5
134 1 0.42762 0.270952 0.5
345 1 0.495998 0.277007 0.5
235 1 0.574286 0.258258 0.5
103 1 0.352156 0.284879 0.5
164 1 0.395445 0.302885 0.5
73 1 0.453212 0.311869 0.5
80 1 0.541712 0.296881 0.5
294 1 0.592311 0.305246 0.5
183 1 0.639015 0.291142 0.5
357 1 0.365673 0.339152 0.5
245 1 0.509135 0.341166 0.5
173 1 0.631819 0.340012 0.5
315 1 0.416217 0.346847 0.5
216 1 0.460679 0.357601 0.5
257 1 0.552926 0.35145 0.5
79 1 0.600413 0.371815 0.5
114 1 0.34831 0.389669 0.5
105 1 0.393363 0.386128 0.5
292 1 0.485975 0.405347 0.5
265 1 0.532107 0.396176 0.5
44 1 0.6448 0.391424 0.5
339 1 0.380593 0.433037 0.5
320 1 0.437744 0.408045 0.5
222 1 0.591707 0.41909 0.5
221 1 0.634901 0.436503 0.5
230 1 0.419896 0.455024 0.5
104 1 0.473239 0.456287 0.5
76 1 0.519436 0.440576 0.5
200 1 0.571 0.463376 0.5
124 1 0.354938 0.473317 0.5
218 1 0.400059 0.497355 0.5
97 1 0.51931 0.491338 0.5
168 1 0.639995 0.483984 0.5
18 1 0.352923 0.527818 0.5
333 1 0.454279 0.506037 0.5
276 1 0.555837 0.526377 0.5
279 1 0.597478 0.501568 0.5
178 1 0.426112 0.550929 0.5
344 1 0.491663 0.534715 0.5
367 1 0.620511 0.54993 0.5
359 1 0.66494 0.531351 0.5
368 1 0.343698 0.574925 0.5
243 1 0.389188 0.580111 0.5
28 1 0.486437 0.591802 0.5
255 1 0.525924 0.564204 0.5
270 1 0.576385 0.565339 0.5
369 1 0.35875 0.620624 0.5
238 1 0.439667 0.596461 0.5
298 1 0.541337 0.608367 0.5
247 1 0.58944 0.6176 0.5
237 1 0.63827 0.611049 0.5
236 1 0.404736 0.627145 0.5
283 1 0.472283 0.634874 0.5
87 1 0.516539 0.649151 0.5
281 1 0.654466 0.653729 0.5
319 1 0.33657 0.68087 0.5
68 1 0.379552 0.665105 0.5
347 1 0.428854 0.669366 0.5
117 1 0.487716 0.685135 0.5
106 1 0.561943 0.672342 0.5
327 1 0.608875 0.662255 0.5
4 1 0.389921 0.713819 0.5
267 1 0.530018 0.70519 0.5
93 1 0.574157 0.716176 0.5
159 1 0.626049 0.71638 0.5
123 1 0.338349 0.730607 0.5
17 1 0.444243 0.719195 0.5
285 1 0.493 0.733431 0.5
170 1 0.380734 0.770903 0.5
361 1 0.458664 0.769966 0.5
110 1 0.548971 0.755988 0.5
184 1 0.65147 0.757139 0.5
335 1 0.425223 0.800902 0.5
96 1 0.500611 0.791729 0.5
194 1 0.548633 0.803612 0.5
329 1 0.595957 0.790108 0.5
264 1 0.637117 0.811815 0.5
77 1 0.372782 0.833772 0.5
304 1 0.46383 0.831866 0.5
232 1 0.510974 0.837147 0.5
145 1 0.582644 0.835986 0.5
226 1 0.413564 0.868987 0.5
330 1 0.554932 0.871786 0.5
231 1 0.661834 0.859616 0.5
152 1 0.448643 0.896397 0.5
228 1 0.50372 0.883896 0.5
260 1 0.61601 0.883027 0.5
307 1 0.336246 0.924452 0.5
385 1 0.397713 0.913549 0.5
288 1 0.482538 0.932924 0.5
393 1 0.528889 0.930295 0.5
98 1 0.57839 0.915905 0.5
261 1 0.623668 0.928903 0.5
175 1 0.37109 0.958611 0.5
99 1 0.433269 0.947542 0.5
3 1 0.573091 0.96767 0.5
137 1 0.400418 0.998303 0.5
254 1 0.464373 0.9829 0.5
250 1 0.515718 0.973959 0.5
353 1 0.644671 0.980541 0.5
75 1 0.673158 0.0173796 0.5
193 1 0.740953 0.0306699 0.5
224 1 0.790156 0.00352426 0.5
188 1 0.899025 0.0277599 0.5
169 1 0.940438 0.00524252 0.5
217 1 0.701691 0.0611572 0.5
7 1 0.804327 0.0514467 0.5
271 1 0.853522 0.0478446 0.5
280 1 0.935274 0.0539826 0.5
291 1 0.982798 0.0491188 0.5
154 1 0.756352 0.0834717 0.5
47 1 0.821956 0.0936537 0.5
119 1 0.890058 0.085925 0.5
90 1 0.719956 0.117843 0.5
376 1 0.783094 0.120367 0.5
66 1 0.950351 0.0944802 0.5
72 1 0.994869 0.0997852 0.5
396 1 0.828852 0.147194 0.5
138 1 0.879593 0.143164 0.5
82 1 0.964135 0.138315 0.5
61 1 0.690375 0.159308 0.5
157 1 0.735677 0.162175 0.5
274 1 0.783784 0.166056 0.5
195 1 0.850864 0.186206 0.5
269 1 0.928231 0.172568 0.5
272 1 0.976543 0.18136 0.5
48 1 0.709273 0.204173 0.5
258 1 0.765435 0.212258 0.5
233 1 0.892513 0.216846 0.5
384 1 0.672698 0.242118 0.5
380 1 0.807255 0.235266 0.5
325 1 0.854096 0.246932 0.5
74 1 0.949403 0.218869 0.5
322 1 0.994621 0.22954 0.5
135 1 0.724747 0.251459 0.5
52 1 0.783806 0.274113 0.5
331 1 0.91646 0.273522 0.5
355 1 0.961505 0.262802 0.5
388 1 0.692277 0.29999 0.5
332 1 0.749298 0.309326 0.5
126 1 0.825439 0.293681 0.5
43 1 0.872366 0.29435 0.5
69 1 0.789899 0.328093 0.5
16 1 0.852205 0.335999 0.5
128 1 0.901666 0.327734 0.5
24 1 0.96497 0.327733 0.5
213 1 0.680132 0.358311 0.5
246 1 0.788854 0.373855 0.5
129 1 0.882287 0.373688 0.5
121 1 0.93497 0.361786 0.5
49 1 0.698814 0.401571 0.5
318 1 0.744001 0.383003 0.5
120 1 0.832678 0.377372 0.5
30 1 0.978179 0.391568 0.5
372 1 0.758784 0.428387 0.5
15 1 0.804079 0.418672 0.5
206 1 0.932592 0.409845 0.5
214 1 0.67727 0.44951 0.5
10 1 0.722626 0.459893 0.5
349 1 0.83251 0.465588 0.5
252 1 0.883047 0.447461 0.5
115 1 0.968891 0.441857 0.5
342 1 0.69777 0.496493 0.5
378 1 0.760883 0.497347 0.5
54 1 0.926251 0.469422 0.5
352 1 0.969888 0.496443 0.5
25 1 0.807798 0.50574 0.5
314 1 0.886589 0.510179 0.5
346 1 0.934845 0.529584 0.5
179 1 0.724755 0.534056 0.5
166 1 0.768252 0.543688 0.5
42 1 0.849978 0.539145 0.5
12 1 0.893718 0.559723 0.5
155 1 0.677053 0.573343 0.5
248 1 0.722782 0.582371 0.5
191 1 0.785444 0.590444 0.5
275 1 0.844688 0.590592 0.5
295 1 0.966179 0.564652 0.5
167 1 0.690443 0.62264 0.5
383 1 0.913826 0.603376 0.5
297 1 0.95835 0.613865 0.5
89 1 0.7385 0.629125 0.5
36 1 0.797431 0.650483 0.5
81 1 0.843871 0.642826 0.5
83 1 0.891509 0.64958 0.5
46 1 0.995027 0.647512 0.5
196 1 0.705708 0.665262 0.5
156 1 0.75598 0.672729 0.5
387 1 0.937773 0.663316 0.5
14 1 0.673624 0.708484 0.5
127 1 0.811538 0.694271 0.5
182 1 0.897364 0.697608 0.5
363 1 0.942922 0.711692 0.5
306 1 0.992458 0.698355 0.5
9 1 0.71819 0.718854 0.5
63 1 0.775244 0.721727 0.5
199 1 0.843777 0.727616 0.5
113 1 0.979071 0.744462 0.5
284 1 0.698885 0.759125 0.5
375 1 0.744477 0.76092 0.5
287 1 0.8112 0.760332 0.5
370 1 0.855403 0.770244 0.5
160 1 0.931121 0.756271 0.5
141 1 0.777468 0.797601 0.5
86 1 0.825102 0.811888 0.5
109 1 0.897673 0.794162 0.5
78 1 0.951403 0.796701 0.5
20 1 0.689668 0.813558 0.5
31 1 0.738444 0.832592 0.5
197 1 0.869604 0.829628 0.5
45 1 0.789068 0.846005 0.5
111 1 0.932417 0.845468 0.5
144 1 0.989904 0.846018 0.5
13 1 0.667276 0.904219 0.5
116 1 0.710007 0.891376 0.5
225 1 0.755227 0.87604 0.5
211 1 0.820018 0.895426 0.5
58 1 0.86654 0.88172 0.5
180 1 0.911389 0.888896 0.5
146 1 0.971131 0.8985 0.5
282 1 0.724194 0.934174 0.5
303 1 0.774482 0.9194 0.5
259 1 0.876452 0.937052 0.5
312 1 0.679443 0.953198 0.5
399 1 0.757791 0.967748 0.5
286 1 0.833119 0.940165 0.5
366 1 0.944161 0.938569 0.5
256 1 0.715425 0.992831 0.5
390 1 0.835439 0.987712 0.5
377 1 0.898058 0.9806 0.5
289 1 0.984478 0.982316 0.5
