ITEM: TIMESTEP
100000
ITEM: NUMBER OF ATOMS
400
ITEM: BOX BOUNDS pp pp pp
0.0000000000000000e+00 2.5819888974716111e+01
0.0000000000000000e+00 2.5819888974716111e+01
-6.4549722436790280e-01 6.4549722436790280e-01
ITEM: ATOMS id type xs ys zs
266 1 0.0326741 0.640207 0.5
79 1 0.278126 0.160776 0.5
317 1 0.108783 0.119936 0.5
185 1 0.147958 0.183768 0.5
400 1 0.273408 0.225301 0.5
33 1 0.266266 0.0240582 0.5
62 1 0.140755 0.141885 0.5
352 1 0.181384 0.519794 0.5
226 1 0.314992 0.299874 0.5
139 1 0.133039 0.0852519 0.5
86 1 0.302738 0.190626 0.5
319 1 0.30164 0.0863459 0.5
45 1 0.0704778 0.132191 0.5
183 1 0.019195 0.987253 0.5
47 1 0.111975 0.172344 0.5
231 1 0.197932 0.124812 0.5
58 1 0.191061 0.195214 0.5
98 1 0.235562 0.469316 0.5
252 1 0.178385 0.0764185 0.5
246 1 0.223895 0.310769 0.5
138 1 0.301904 0.502199 0.5
204 1 0.31282 0.415247 0.5
288 1 0.187183 0.25557 0.5
302 1 0.323706 0.151743 0.5
338 1 0.0200101 0.215936 0.5
128 1 0.18836 0.338148 0.5
363 1 0.117886 0.376811 0.5
340 1 0.0856249 0.0154951 0.5
137 1 0.0599529 0.278361 0.5
347 1 0.231028 0.25519 0.5
99 1 0.29052 0.551072 0.5
147 1 0.0355584 0.384535 0.5
388 1 0.113189 0.287685 0.5
294 1 0.266664 0.287946 0.5
248 1 0.0983644 0.41862 0.5
258 1 0.0751823 0.356222 0.5
348 1 0.232256 0.205414 0.5
42 1 0.269437 0.115294 0.5
158 1 0.30313 0.254424 0.5
308 1 0.179047 0.408542 0.5
327 1 0.132951 0.476816 0.5
65 1 0.0682183 0.317984 0.5
117 1 0.138334 0.432176 0.5
188 1 0.0731055 0.242036 0.5
18 1 0.0165797 0.441451 0.5
376 1 0.134732 0.323987 0.5
239 1 0.0466138 0.469303 0.5
14 1 0.260505 0.420846 0.5
112 1 0.158083 0.375034 0.5
232 1 0.00199519 0.779595 0.5
218 1 0.0239219 0.507964 0.5
221 1 0.181648 0.300732 0.5
219 1 0.304479 0.721202 0.5
374 1 0.225591 0.521121 0.5
397 1 0.204393 0.48959 0.5
268 1 0.145228 0.553648 0.5
209 1 0.246013 0.572017 0.5
332 1 0.127071 0.514247 0.5
82 1 0.169028 0.478941 0.5
212 1 0.290211 0.451668 0.5
320 1 0.0832756 0.49638 0.5
190 1 0.239303 0.77242 0.5
260 1 0.0668277 0.700037 0.5
301 1 0.0818313 0.615771 0.5
262 1 0.299131 0.654858 0.5
180 1 0.0260814 0.903879 0.5
275 1 0.0593291 0.534841 0.5
191 1 0.167591 0.589455 0.5
194 1 0.213364 0.620679 0.5
126 1 0.12331 0.598725 0.5
346 1 0.0610668 0.797106 0.5
59 1 0.179902 0.66149 0.5
125 1 0.256468 0.625186 0.5
81 1 0.0288626 0.578124 0.5
385 1 0.135166 0.669408 0.5
235 1 0.277779 0.749456 0.5
263 1 0.277624 0.59139 0.5
52 1 0.24753 0.697089 0.5
329 1 0.308329 0.043625 0.5
76 1 0.179257 0.745589 0.5
335 1 0.160924 0.698842 0.5
331 1 0.208527 0.798868 0.5
215 1 0.256255 0.0648127 0.5
113 1 0.170578 0.804923 0.5
60 1 0.218062 0.857173 0.5
192 1 0.198598 0.701104 0.5
119 1 0.149662 0.632842 0.5
378 1 0.297962 0.851378 0.5
26 1 0.0968137 0.769345 0.5
144 1 0.104583 0.55597 0.5
37 1 0.223915 0.738339 0.5
355 1 0.303779 0.966671 0.5
206 1 0.326509 0.459752 0.5
315 1 0.0956344 0.879766 0.5
225 1 0.269459 0.794512 0.5
349 1 0.0830925 0.664942 0.5
36 1 0.124029 0.0465308 0.5
23 1 0.0435709 0.177668 0.5
184 1 0.25993 0.662292 0.5
30 1 0.0575746 0.75901 0.5
230 1 0.20535 0.904524 0.5
111 1 0.0262924 0.685019 0.5
163 1 0.159841 0.86275 0.5
265 1 0.187928 0.944179 0.5
43 1 0.15613 0.970927 0.5
243 1 0.239787 0.164572 0.5
318 1 0.222063 0.667553 0.5
114 1 0.0970092 0.206201 0.5
207 1 0.136598 0.733833 0.5
390 1 0.156291 0.00817001 0.5
245 1 0.203366 0.0139792 0.5
261 1 0.293176 0.339143 0.5
321 1 0.013923 0.0900728 0.5
1 1 0.283194 0.387383 0.5
197 1 0.129547 0.787054 0.5
377 1 0.107366 0.842235 0.5
379 1 0.243539 0.371837 0.5
6 1 0.321243 -0.000889009 0.5
120 1 0.138866 0.895409 0.5
157 1 0.0533911 0.86081 0.5
368 1 0.285148 0.906759 0.5
9 1 0.0846826 0.0536732 0.5
108 1 0.0113204 0.149329 0.5
259 1 0.074672 0.939593 0.5
298 1 0.14075 0.933379 0.5
178 1 0.224266 0.0935492 0.5
334 1 0.24038 0.996626 0.5
325 1 0.0559035 0.420969 0.5
39 1 0.036839 0.0519173 0.5
133 1 0.315481 0.770782 0.5
92 1 0.0149877 0.845557 0.5
337 1 0.0182237 0.275885 0.5
195 1 0.330241 0.934404 0.5
295 1 0.637895 0.086202 0.5
97 1 0.657548 0.132758 0.5
152 1 0.472359 0.0301717 0.5
174 1 0.452646 0.0647955 0.5
303 1 0.420263 0.900131 0.5
35 1 0.477273 0.228122 0.5
149 1 0.557555 0.0383652 0.5
343 1 0.591032 0.938656 0.5
211 1 0.602985 0.0482277 0.5
54 1 0.626648 0.00453174 0.5
237 1 0.41024 0.173263 0.5
146 1 0.372348 0.155826 0.5
189 1 0.465017 0.18623 0.5
71 1 0.394206 0.545783 0.5
89 1 0.364979 0.569254 0.5
306 1 0.548044 0.757958 0.5
198 1 0.431292 0.265318 0.5
238 1 0.524776 0.0583282 0.5
375 1 0.336329 0.22207 0.5
278 1 0.666749 0.698751 0.5
234 1 0.558126 0.170634 0.5
96 1 0.380534 0.0842806 0.5
341 1 0.35868 0.0159118 0.5
362 1 0.656492 0.379937 0.5
4 1 0.341008 0.109811 0.5
148 1 0.521477 0.238607 0.5
13 1 0.585407 0.103144 0.5
159 1 0.551092 0.550192 0.5
48 1 0.608635 0.206632 0.5
154 1 0.440885 0.219896 0.5
358 1 0.371576 0.956176 0.5
344 1 0.647316 0.319355 0.5
391 1 0.561848 0.298457 0.5
387 1 0.38922 0.356046 0.5
233 1 0.624531 0.25529 0.5
176 1 0.504718 0.18504 0.5
135 1 0.398894 0.402969 0.5
369 1 0.357022 0.507151 0.5
310 1 0.497477 0.561904 0.5
156 1 0.483779 0.151711 0.5
2 1 0.470577 0.279969 0.5
67 1 0.388197 0.246356 0.5
213 1 0.648745 0.773601 0.5
49 1 0.53576 0.141826 0.5
330 1 0.655091 0.043097 0.5
361 1 0.383257 0.29956 0.5
201 1 0.569998 0.465201 0.5
250 1 0.522775 0.406999 0.5
286 1 0.601079 0.3063 0.5
173 1 0.354976 0.740116 0.5
104 1 0.505031 0.368219 0.5
365 1 0.540203 0.0986787 0.5
53 1 0.618537 0.966677 0.5
165 1 0.361225 0.435846 0.5
205 1 0.464629 0.449218 0.5
279 1 0.548255 0.378007 0.5
242 1 0.427394 0.590255 0.5
214 1 0.656861 0.546906 0.5
16 1 0.477772 0.6993 0.5
66 1 0.570524 0.220568 0.5
323 1 0.475024 0.401582 0.5
370 1 0.589903 0.345448 0.5
15 1 0.435283 0.125725 0.5
227 1 0.358842 0.812946 0.5
40 1 0.468887 0.337076 0.5
292 1 0.347043 0.33951 0.5
241 1 0.582511 0.98571 0.5
202 1 0.442018 0.369599 0.5
151 1 0.384191 0.466694 0.5
359 1 0.421685 0.432627 0.5
328 1 0.662299 0.434287 0.5
12 1 0.614104 0.144573 0.5
167 1 0.428537 0.309408 0.5
356 1 0.459825 0.563742 0.5
106 1 0.497562 0.434324 0.5
109 1 0.335839 0.375577 0.5
72 1 0.436531 0.483591 0.5
360 1 0.457878 0.515866 0.5
284 1 0.600129 0.563382 0.5
162 1 0.531663 0.464613 0.5
307 1 0.640985 0.466258 0.5
196 1 0.666712 0.501542 0.5
28 1 0.504348 0.867808 0.5
203 1 0.394314 0.990105 0.5
200 1 0.622531 0.892251 0.5
398 1 0.343583 0.662894 0.5
150 1 0.553413 0.878855 0.5
141 1 0.505278 0.743499 0.5
127 1 0.518174 0.642976 0.5
91 1 0.573975 0.513299 0.5
210 1 0.617348 0.501494 0.5
399 1 0.518142 0.0223606 0.5
17 1 0.601944 0.38107 0.5
25 1 0.549581 0.598326 0.5
142 1 0.419837 0.520655 0.5
38 1 0.415384 0.624754 0.5
74 1 0.583249 0.66642 0.5
287 1 0.620148 0.654558 0.5
299 1 0.398173 0.209981 0.5
102 1 0.662214 0.653331 0.5
171 1 0.437542 0.698623 0.5
229 1 0.513855 0.517936 0.5
282 1 0.572375 0.702862 0.5
244 1 0.584963 0.898643 0.5
372 1 0.605055 0.61192 0.5
247 1 0.425324 0.943458 0.5
160 1 0.389997 0.665418 0.5
70 1 0.645181 0.603718 0.5
316 1 0.567097 0.423254 0.5
313 1 0.390175 0.874341 0.5
122 1 0.493366 0.78276 0.5
353 1 0.61594 0.697536 0.5
274 1 0.518316 0.815285 0.5
367 1 0.625054 0.426251 0.5
256 1 0.398858 0.715225 0.5
386 1 0.383781 0.916335 0.5
314 1 0.36143 0.697586 0.5
31 1 0.460585 0.733992 0.5
110 1 0.445003 0.800319 0.5
216 1 0.527001 0.970404 0.5
333 1 0.393822 0.0424009 0.5
395 1 0.423143 0.0154047 0.5
236 1 0.422248 0.746643 0.5
312 1 0.353532 0.85975 0.5
101 1 0.481669 0.101838 0.5
342 1 0.430684 0.852311 0.5
136 1 0.598162 0.741122 0.5
95 1 0.620976 0.804972 0.5
27 1 0.569423 0.817017 0.5
90 1 0.635796 0.930377 0.5
123 1 0.499267 0.919878 0.5
228 1 0.338969 0.613223 0.5
118 1 0.349775 0.061988 0.5
254 1 0.665266 0.276614 0.5
186 1 0.960456 0.467397 0.5
392 1 0.745407 0.843392 0.5
164 1 0.850621 0.902843 0.5
271 1 0.874743 0.981754 0.5
55 1 0.689228 0.0596718 0.5
311 1 0.814581 0.92899 0.5
222 1 0.694997 0.550923 0.5
32 1 0.964498 0.100171 0.5
68 1 0.901765 0.383208 0.5
251 1 0.951575 0.00165097 0.5
290 1 0.947839 0.0492237 0.5
175 1 0.709415 0.382352 0.5
57 1 0.839119 0.994207 0.5
257 1 0.697716 0.0190561 0.5
351 1 0.733192 0.341956 0.5
339 1 0.723573 0.940801 0.5
366 1 0.789352 0.00394423 0.5
217 1 0.914114 0.125083 0.5
77 1 0.783762 0.356936 0.5
50 1 0.922779 0.898919 0.5
121 1 0.862663 0.391471 0.5
21 1 0.91017 0.0816121 0.5
187 1 0.913506 0.00650231 0.5
172 1 0.990493 0.701298 0.5
309 1 0.846266 0.186266 0.5
75 1 0.96733 0.273324 0.5
300 1 0.808716 0.464068 0.5
305 1 0.911782 0.970477 0.5
145 1 0.773056 0.045064 0.5
381 1 0.753866 0.215778 0.5
131 1 0.838244 0.279166 0.5
297 1 0.80024 0.0810533 0.5
8 1 0.804152 0.196834 0.5
304 1 0.818703 0.1164 0.5
88 1 0.868083 0.226795 0.5
34 1 0.729264 0.282268 0.5
267 1 0.888497 0.154402 0.5
240 1 0.883468 0.317878 0.5
283 1 0.711548 0.797897 0.5
394 1 0.924824 0.413696 0.5
46 1 0.822772 0.344581 0.5
161 1 0.914213 0.27003 0.5
249 1 0.87616 0.277217 0.5
100 1 0.888993 0.423643 0.5
44 1 0.945648 0.318794 0.5
291 1 0.802453 0.309603 0.5
389 1 0.76509 0.315589 0.5
115 1 0.689205 0.349302 0.5
382 1 0.697609 0.254713 0.5
22 1 0.94963 0.368835 0.5
393 1 0.906113 0.470113 0.5
134 1 0.778913 0.146468 0.5
354 1 0.703406 0.644838 0.5
7 1 0.85363 0.446577 0.5
103 1 0.688063 0.973447 0.5
270 1 0.711604 0.181446 0.5
63 1 0.917522 0.705315 0.5
166 1 0.815984 0.403221 0.5
132 1 0.728811 0.0643946 0.5
208 1 0.68098 0.467209 0.5
51 1 0.784449 0.845792 0.5
87 1 0.872785 0.939057 0.5
223 1 0.986737 0.577833 0.5
80 1 0.812522 0.96674 0.5
324 1 0.753886 0.529571 0.5
280 1 0.765958 0.491197 0.5
380 1 0.820455 0.498556 0.5
255 1 0.955817 0.628611 0.5
73 1 0.981284 0.814379 0.5
293 1 0.910642 0.228955 0.5
24 1 0.754539 0.777444 0.5
357 1 0.899627 0.571594 0.5
29 1 0.978683 0.740256 0.5
130 1 0.823668 0.679286 0.5
373 1 0.993724 0.0197175 0.5
350 1 0.749224 0.0987755 0.5
364 1 0.852713 0.14148 0.5
296 1 0.784516 0.576534 0.5
94 1 0.769863 0.420866 0.5
179 1 0.721225 0.493584 0.5
105 1 0.748819 0.385204 0.5
41 1 0.842133 0.529317 0.5
371 1 0.843857 0.567661 0.5
326 1 0.693456 0.605694 0.5
69 1 0.864481 0.106452 0.5
116 1 0.888885 0.522516 0.5
56 1 0.725457 0.422142 0.5
273 1 0.871986 0.485057 0.5
169 1 0.786622 0.615077 0.5
276 1 0.969152 0.424205 0.5
5 1 0.752104 0.977079 0.5
170 1 0.919712 0.664104 0.5
199 1 0.722259 0.123757 0.5
93 1 0.965608 0.671765 0.5
193 1 0.994261 0.879536 0.5
272 1 0.880599 0.716663 0.5
345 1 0.905707 0.629135 0.5
269 1 0.766341 0.675475 0.5
84 1 0.979328 0.208818 0.5
64 1 0.740991 0.617608 0.5
220 1 0.774318 0.913732 0.5
384 1 0.933633 0.74652 0.5
264 1 0.798241 0.881618 0.5
140 1 0.945037 0.552841 0.5
168 1 0.702947 0.737676 0.5
20 1 0.711937 0.69937 0.5
85 1 0.86584 0.610557 0.5
155 1 0.954355 0.853307 0.5
61 1 0.712587 0.867618 0.5
107 1 0.764414 0.737888 0.5
181 1 0.800453 0.710209 0.5
3 1 0.868418 0.762082 0.5
396 1 0.896107 0.79191 0.5
336 1 0.949224 0.503103 0.5
182 1 0.827347 0.770044 0.5
143 1 0.871974 0.824845 0.5
285 1 0.915248 0.827787 0.5
10 1 0.796992 0.237803 0.5
129 1 0.99954 0.536395 0.5
383 1 0.968694 0.15213 0.5
322 1 0.942335 0.787254 0.5
83 1 0.837766 0.712219 0.5
19 1 0.83108 0.820252 0.5
281 1 0.831518 0.862359 0.5
224 1 0.669264 0.228872 0.5
277 1 0.733638 0.900556 0.5
289 1 0.948971 0.235102 0.5
177 1 0.957719 0.950301 0.5
153 1 0.713711 0.218623 0.5
78 1 0.671381 0.814864 0.5
124 1 0.995931 0.360959 0.5
11 1 0.675624 0.876483 0.5
253 1 0.996721 0.316073 0.5
