ITEM: TIMESTEP
100000
ITEM: NUMBER OF ATOMS
400
ITEM: BOX BOUNDS pp pp pp
0.0000000000000000e+00 2.8284271247461902e+01
0.0000000000000000e+00 2.8284271247461902e+01
-7.0710678118654757e-01 7.0710678118654757e-01
ITEM: ATOMS id type xs ys zs
155 1 0.188647 0.205556 0.5
280 1 0.0404607 0.186568 0.5
161 1 0.295664 0.0236233 0.5
90 1 0.145652 0.208351 0.5
132 1 0.109507 0.808383 0.5
100 1 0.284807 0.909654 0.5
140 1 0.203841 0.841951 0.5
387 1 0.209528 0.128668 0.5
24 1 0.176211 0.115052 0.5
386 1 0.228794 0.809496 0.5
334 1 0.0823577 0.274395 0.5
178 1 0.203443 0.0715497 0.5
149 1 0.0125626 0.0592193 0.5
31 1 0.184364 0.75247 0.5
206 1 0.233495 0.673981 0.5
393 1 0.196087 0.667229 0.5
260 1 0.187135 0.158748 0.5
308 1 0.0603253 0.858145 0.5
44 1 0.245874 0.148014 0.5
99 1 0.236402 0.215142 0.5
291 1 0.291029 0.133383 0.5
326 1 0.122678 0.258609 0.5
43 1 0.0676075 0.215055 0.5
288 1 0.333415 0.716636 0.5
382 1 0.135749 0.346059 0.5
143 1 0.168364 0.268015 0.5
239 1 0.047168 0.273121 0.5
277 1 0.317513 0.187114 0.5
152 1 0.275835 0.210733 0.5
26 1 0.000659711 0.512745 0.5
2 1 0.254503 0.341572 0.5
169 1 0.214371 0.398075 0.5
40 1 0.0426625 0.92214 0.5
296 1 0.326711 0.242208 0.5
225 1 0.0944024 0.963776 0.5
53 1 0.0941525 0.323351 0.5
376 1 0.251514 0.480377 0.5
49 1 0.122553 0.293572 0.5
241 1 0.141311 0.381143 0.5
210 1 0.00911842 0.606654 0.5
110 1 0.179406 0.393176 0.5
262 1 0.309371 0.796312 0.5
214 1 0.286264 0.828742 0.5
267 1 0.0711134 0.430144 0.5
388 1 0.191033 0.241436 0.5
130 1 0.25423 0.266098 0.5
321 1 0.305758 0.462986 0.5
14 1 0.315193 0.100615 0.5
383 1 0.0293214 0.237422 0.5
370 1 0.294143 0.310734 0.5
336 1 0.0708781 0.819743 0.5
118 1 0.0881836 0.460063 0.5
51 1 0.305196 0.690101 0.5
235 1 0.0715339 0.172067 0.5
180 1 0.0356703 0.312714 0.5
114 1 0.251611 0.419095 0.5
147 1 0.102887 0.359306 0.5
66 1 0.187024 0.632559 0.5
395 1 0.133813 0.471877 0.5
119 1 0.221253 0.452555 0.5
399 1 0.273306 0.377173 0.5
301 1 0.132896 0.416617 0.5
312 1 0.0279607 0.353406 0.5
5 1 0.0414854 0.479173 0.5
75 1 0.291631 0.407971 0.5
338 1 0.276386 0.442447 0.5
170 1 0.273802 0.65003 0.5
292 1 0.309364 0.951315 0.5
219 1 0.333038 0.754012 0.5
171 1 0.0373944 0.150854 0.5
102 1 0.11493 0.577889 0.5
21 1 0.176792 0.429771 0.5
205 1 0.154249 0.568526 0.5
231 1 0.208955 0.560796 0.5
377 1 0.26533 0.564908 0.5
313 1 0.0965552 0.651166 0.5
352 1 0.0989105 0.687401 0.5
70 1 0.0141575 0.573052 0.5
117 1 0.062947 0.513215 0.5
179 1 0.136334 0.702158 0.5
398 1 0.23752 0.633099 0.5
111 1 0.0463385 0.6055 0.5
314 1 0.120103 0.514252 0.5
78 1 0.0982446 0.545085 0.5
323 1 0.242621 0.721281 0.5
373 1 0.155785 0.817921 0.5
294 1 0.267897 0.600963 0.5
290 1 0.305042 0.57275 0.5
331 1 0.111104 0.0504085 0.5
327 1 0.267267 0.949578 0.5
330 1 0.194061 0.702627 0.5
299 1 0.208852 0.507303 0.5
81 1 0.300408 0.618847 0.5
62 1 0.0839967 0.0983485 0.5
191 1 0.0730186 0.734339 0.5
194 1 0.0629543 0.636854 0.5
82 1 0.298935 0.0594174 0.5
256 1 0.0159225 0.412858 0.5
339 1 0.125585 0.618126 0.5
38 1 0.0935228 0.86806 0.5
138 1 0.293923 0.751114 0.5
283 1 0.149765 0.744452 0.5
359 1 0.218921 0.882567 0.5
175 1 0.00361206 0.107087 0.5
311 1 0.189014 0.318443 0.5
371 1 0.198919 0.92281 0.5
136 1 0.126477 0.881114 0.5
271 1 0.139551 0.924824 0.5
37 1 0.331056 0.30673 0.5
112 1 0.102523 0.915315 0.5
18 1 0.225811 0.959334 0.5
364 1 0.163537 0.884706 0.5
227 1 0.247762 0.00904592 0.5
351 1 0.299655 0.870585 0.5
217 1 0.109075 0.76977 0.5
265 1 0.269921 0.697658 0.5
237 1 0.056268 0.992327 0.5
381 1 0.247727 0.904772 0.5
324 1 0.250885 0.093137 0.5
200 1 0.202395 0.986131 0.5
141 1 0.160172 0.0691066 0.5
258 1 0.281117 0.522233 0.5
275 1 0.123177 0.160261 0.5
211 1 0.246346 0.771528 0.5
228 1 0.0351349 0.959185 0.5
13 1 0.057738 0.0695769 0.5
285 1 0.181664 0.358972 0.5
279 1 0.125333 1.00057 0.5
212 1 0.0104287 0.871187 0.5
247 1 0.00312967 0.989951 0.5
166 1 0.332211 0.15346 0.5
315 1 0.424593 0.0670713 0.5
392 1 0.454647 0.133165 0.5
69 1 0.521968 0.0486879 0.5
23 1 0.452168 0.448255 0.5
124 1 0.352717 0.400791 0.5
106 1 0.39778 0.978069 0.5
68 1 0.428069 0.892368 0.5
320 1 0.388675 0.916395 0.5
215 1 0.648444 0.00238508 0.5
39 1 0.456786 0.873512 0.5
268 1 0.616175 0.679915 0.5
347 1 0.56039 0.83317 0.5
139 1 0.602963 0.583815 0.5
270 1 0.573483 0.123943 0.5
248 1 0.427347 0.271733 0.5
6 1 0.535279 0.11502 0.5
221 1 0.47705 0.0925773 0.5
61 1 0.335493 0.538783 0.5
350 1 0.412231 0.233254 0.5
35 1 0.517773 0.0857104 0.5
328 1 0.605105 0.991922 0.5
80 1 0.59141 0.0704902 0.5
11 1 0.371682 0.238863 0.5
340 1 0.357841 0.63499 0.5
272 1 0.489657 0.125603 0.5
397 1 0.535536 0.249771 0.5
189 1 0.365539 0.194011 0.5
177 1 0.613241 0.167684 0.5
317 1 0.354686 0.437888 0.5
274 1 0.37433 0.0423983 0.5
234 1 0.479758 0.0492147 0.5
284 1 0.369693 0.11568 0.5
255 1 0.603566 0.923896 0.5
96 1 0.372776 0.155196 0.5
240 1 0.649221 0.133397 0.5
163 1 0.645573 0.0576413 0.5
366 1 0.348214 0.873453 0.5
252 1 0.61252 0.114202 0.5
354 1 0.428895 0.523247 0.5
146 1 0.569209 0.236846 0.5
238 1 0.548913 0.177052 0.5
230 1 0.517077 0.951893 0.5
374 1 0.637065 0.29851 0.5
164 1 0.400419 0.298403 0.5
148 1 0.566299 0.331152 0.5
361 1 0.464628 0.366405 0.5
216 1 0.393876 0.72327 0.5
220 1 0.580922 0.296902 0.5
16 1 0.510214 0.501158 0.5
22 1 0.422787 0.19841 0.5
295 1 0.536682 0.410216 0.5
297 1 0.343856 0.0747095 0.5
289 1 0.430027 0.0991737 0.5
213 1 0.598369 0.45029 0.5
232 1 0.603666 0.3324 0.5
150 1 0.567326 0.0220211 0.5
355 1 0.498802 0.245237 0.5
79 1 0.644008 0.409093 0.5
346 1 0.429543 0.367772 0.5
384 1 0.406045 0.573051 0.5
236 1 0.4593 0.244729 0.5
337 1 0.404181 0.440021 0.5
209 1 0.522429 0.348161 0.5
10 1 0.493796 0.416236 0.5
201 1 0.352247 0.482931 0.5
182 1 0.465711 0.490621 0.5
46 1 0.406116 0.668315 0.5
264 1 0.640565 0.845516 0.5
391 1 0.383703 0.0804518 0.5
59 1 0.365077 0.558529 0.5
9 1 0.66633 0.351112 0.5
85 1 0.403073 0.617321 0.5
105 1 0.557329 0.507654 0.5
249 1 0.617837 0.202981 0.5
108 1 0.559303 0.616496 0.5
342 1 0.470748 0.5613 0.5
293 1 0.45127 0.0035587 0.5
131 1 0.557563 0.462728 0.5
278 1 0.645776 0.489303 0.5
135 1 0.554455 0.571961 0.5
122 1 0.463283 0.60208 0.5
222 1 0.496897 0.917065 0.5
257 1 0.446645 0.645025 0.5
333 1 0.640636 0.889517 0.5
73 1 0.354834 0.27473 0.5
128 1 0.47802 0.676426 0.5
380 1 0.600713 0.779958 0.5
348 1 0.425976 0.479676 0.5
335 1 0.418254 0.945839 0.5
188 1 0.523954 0.674224 0.5
151 1 0.566636 0.650984 0.5
242 1 0.492186 0.642413 0.5
94 1 0.597178 0.81521 0.5
226 1 0.401925 0.343751 0.5
84 1 0.63579 0.962402 0.5
229 1 0.397705 0.504394 0.5
74 1 0.353736 0.818308 0.5
172 1 0.531767 0.73824 0.5
12 1 0.507768 0.839175 0.5
127 1 0.406502 0.402118 0.5
7 1 0.555824 0.781454 0.5
309 1 0.405941 0.76651 0.5
243 1 0.548301 0.870919 0.5
345 1 0.530896 0.00632744 0.5
50 1 0.512457 0.614694 0.5
168 1 0.465107 0.327898 0.5
30 1 0.636336 0.768115 0.5
365 1 0.452639 0.727014 0.5
95 1 0.602599 0.493701 0.5
41 1 0.455249 0.764049 0.5
318 1 0.510472 0.578184 0.5
286 1 0.663237 0.62779 0.5
107 1 0.416359 0.830351 0.5
88 1 0.343663 0.585054 0.5
360 1 0.370111 0.945682 0.5
319 1 0.371436 0.694441 0.5
276 1 0.596113 0.862078 0.5
60 1 0.631638 0.259069 0.5
298 1 0.506988 0.785677 0.5
245 1 0.615377 0.731438 0.5
185 1 0.632409 0.547005 0.5
368 1 0.461928 0.812137 0.5
190 1 0.507177 0.88023 0.5
87 1 0.398516 0.861903 0.5
93 1 0.579049 0.953249 0.5
159 1 0.572197 0.907628 0.5
202 1 0.492901 0.976685 0.5
357 1 0.340096 0.921105 0.5
160 1 0.662973 0.589454 0.5
218 1 0.833316 0.11114 0.5
42 1 0.823613 0.957353 0.5
144 1 0.835432 0.916836 0.5
25 1 0.850778 0.252707 0.5
33 1 0.778188 0.861184 0.5
199 1 0.795899 0.0597749 0.5
133 1 0.986482 0.273605 0.5
263 1 0.734536 0.0399569 0.5
3 1 0.885462 0.961851 0.5
250 1 0.959682 0.0699054 0.5
207 1 0.926192 0.0072736 0.5
98 1 0.999475 0.835439 0.5
86 1 0.908939 0.100804 0.5
198 1 0.896345 0.400817 0.5
67 1 0.906539 0.0633804 0.5
363 1 0.827826 0.994095 0.5
76 1 0.918127 0.145708 0.5
58 1 0.807908 0.0228958 0.5
266 1 0.797644 0.113494 0.5
181 1 0.704895 0.0676476 0.5
246 1 0.754559 0.221308 0.5
196 1 0.939593 0.386415 0.5
332 1 0.701717 0.124975 0.5
307 1 0.748975 0.326797 0.5
137 1 0.862954 0.203693 0.5
197 1 0.900785 0.18265 0.5
322 1 0.970832 0.919345 0.5
253 1 0.911398 0.925891 0.5
134 1 0.714363 0.303681 0.5
379 1 0.778545 0.255535 0.5
353 1 0.848325 0.295065 0.5
223 1 0.699372 0.0241339 0.5
52 1 0.822134 0.175107 0.5
121 1 0.736089 0.259347 0.5
203 1 0.905541 0.27445 0.5
356 1 0.824694 0.432649 0.5
129 1 0.982072 0.545161 0.5
367 1 0.885994 0.30691 0.5
167 1 0.79213 0.196637 0.5
304 1 0.786159 0.28945 0.5
195 1 0.867494 0.335175 0.5
65 1 0.711507 0.990479 0.5
29 1 0.87671 0.995961 0.5
56 1 0.918035 0.579424 0.5
153 1 0.848878 0.0443614 0.5
183 1 0.776908 0.375411 0.5
273 1 0.866875 0.802698 0.5
32 1 0.813235 0.319035 0.5
396 1 0.961221 0.139223 0.5
254 1 0.673102 0.30395 0.5
63 1 0.842975 0.363808 0.5
156 1 0.742876 0.381272 0.5
104 1 0.848103 0.507202 0.5
48 1 0.850783 0.588051 0.5
316 1 0.72473 0.896226 0.5
187 1 0.85891 0.428061 0.5
17 1 0.941154 0.420142 0.5
251 1 0.970236 0.023002 0.5
165 1 0.9508 0.525122 0.5
20 1 0.911832 0.544208 0.5
372 1 0.844047 0.464082 0.5
325 1 0.874933 0.113003 0.5
55 1 0.796088 0.477601 0.5
281 1 0.992055 0.352497 0.5
193 1 0.870235 0.65795 0.5
186 1 0.856909 0.94351 0.5
36 1 0.812574 0.521749 0.5
91 1 0.81032 0.388199 0.5
287 1 0.938089 0.321694 0.5
349 1 0.815205 0.718236 0.5
28 1 0.831704 0.671132 0.5
72 1 0.782497 0.437167 0.5
157 1 0.893581 0.437008 0.5
269 1 0.83422 0.630685 0.5
233 1 0.796131 0.625694 0.5
1 1 0.796086 0.668334 0.5
176 1 0.930148 0.687018 0.5
92 1 0.777475 0.574313 0.5
158 1 0.977796 0.311632 0.5
375 1 0.722358 0.500086 0.5
306 1 0.960627 0.800269 0.5
45 1 0.943189 0.729289 0.5
174 1 0.78519 0.771522 0.5
303 1 0.869604 0.535369 0.5
369 1 0.831589 0.753359 0.5
204 1 0.96512 0.577507 0.5
27 1 0.868683 0.704187 0.5
300 1 0.700791 0.179507 0.5
116 1 0.750519 0.773976 0.5
126 1 0.709987 0.793318 0.5
77 1 0.71241 0.592953 0.5
341 1 0.704672 0.728429 0.5
362 1 0.730369 0.842946 0.5
329 1 0.937509 0.839812 0.5
305 1 0.748633 0.546737 0.5
54 1 0.811588 0.578457 0.5
101 1 0.911502 0.644101 0.5
142 1 0.736132 0.74253 0.5
162 1 0.915831 0.793009 0.5
47 1 0.75992 0.0913316 0.5
208 1 0.678665 0.479966 0.5
173 1 0.682553 0.824117 0.5
154 1 0.911142 0.741765 0.5
145 1 0.808499 0.796752 0.5
89 1 0.714805 0.424734 0.5
113 1 0.774262 0.16399 0.5
310 1 0.777911 0.710948 0.5
390 1 0.67229 0.917186 0.5
385 1 0.677589 0.965953 0.5
358 1 0.927283 0.886271 0.5
97 1 0.970062 0.644066 0.5
343 1 0.812871 0.848263 0.5
302 1 0.68129 0.55046 0.5
389 1 0.993674 0.946925 0.5
125 1 0.700249 0.344128 0.5
261 1 0.761958 0.811676 0.5
120 1 0.764597 0.648655 0.5
344 1 0.937257 0.185605 0.5
8 1 0.975583 0.424271 0.5
282 1 0.76247 0.00309012 0.5
259 1 0.707707 0.668514 0.5
19 1 0.968336 0.863786 0.5
64 1 0.671548 0.0976737 0.5
34 1 0.813486 0.882577 0.5
109 1 0.85164 0.150205 0.5
184 1 0.912384 0.49217 0.5
224 1 0.710859 0.462756 0.5
400 1 0.710036 0.627186 0.5
57 1 0.778462 0.533072 0.5
394 1 0.684854 0.396112 0.5
378 1 0.679684 0.232183 0.5
4 1 0.719447 0.93068 0.5
192 1 0.938959 0.25498 0.5
71 1 0.962238 0.677441 0.5
244 1 0.997352 0.158566 0.5
103 1 0.695988 0.864762 0.5
123 1 0.998114 0.706235 0.5
115 1 0.996243 0.471858 0.5
15 1 0.678299 0.688641 0.5
83 1 0.995752 0.744536 0.5
