ITEM: TIMESTEP
100000
ITEM: NUMBER OF ATOMS
400
ITEM: BOX BOUNDS pp pp pp
0.0000000000000000e+00 2.2360679774997898e+01
0.0000000000000000e+00 2.2360679774997898e+01
-5.5901699437494745e-01 5.5901699437494745e-01
ITEM: ATOMS id type xs ys zs
225 1 0.179839 0.980898 0.5
389 1 0.20408 0.0678313 0.5
8 1 0.0690344 0.771701 0.5
259 1 0.0716627 0.0365286 0.5
330 1 0.152675 0.0977154 0.5
308 1 0.203126 0.109669 0.5
192 1 0.289192 0.169551 0.5
55 1 0.0337221 0.0804679 0.5
156 1 0.103738 0.112298 0.5
22 1 0.29805 0.488855 0.5
183 1 0.0443708 0.997731 0.5
104 1 0.0501788 0.120417 0.5
252 1 0.26702 0.0639342 0.5
186 1 0.124856 0.170436 0.5
60 1 0.0820608 0.154954 0.5
40 1 0.16813 0.140855 0.5
352 1 0.273482 0.229265 0.5
227 1 0.0871205 0.884803 0.5
291 1 0.122599 0.0510361 0.5
135 1 0.0312181 0.81277 0.5
38 1 0.244039 0.194403 0.5
281 1 0.234298 0.50966 0.5
80 1 0.0105189 0.0245175 0.5
248 1 0.0503872 0.216389 0.5
9 1 0.181479 0.238546 0.5
179 1 0.0698684 0.450403 0.5
144 1 0.0878463 0.968811 0.5
87 1 0.309582 0.282491 0.5
316 1 0.308959 0.539366 0.5
24 1 0.257658 0.572159 0.5
33 1 0.228965 0.234321 0.5
68 1 0.0590008 0.40342 0.5
122 1 0.0184657 0.151763 0.5
360 1 0.0115665 0.375091 0.5
357 1 0.0997302 0.418 0.5
348 1 0.0942539 0.204415 0.5
379 1 0.138577 0.225971 0.5
335 1 0.231563 0.283086 0.5
67 1 0.146782 0.79782 0.5
251 1 0.115856 0.918367 0.5
385 1 0.0270261 0.295444 0.5
256 1 0.0267401 0.955205 0.5
75 1 0.0156774 0.251251 0.5
1 1 0.302932 0.327951 0.5
285 1 0.236788 0.427512 0.5
223 1 0.252266 0.322087 0.5
116 1 0.166675 0.287962 0.5
202 1 0.0983141 0.248094 0.5
323 1 0.323423 0.241985 0.5
272 1 0.105313 0.340734 0.5
377 1 0.158872 0.342775 0.5
141 1 0.0586914 0.264045 0.5
380 1 0.153759 0.443653 0.5
199 1 0.0745366 0.306505 0.5
362 1 0.163596 0.0392074 0.5
37 1 0.0508681 0.343138 0.5
100 1 0.122523 0.301199 0.5
322 1 0.18594 0.402439 0.5
176 1 0.213977 0.362207 0.5
282 1 0.0555748 0.914389 0.5
400 1 0.20105 0.460852 0.5
345 1 0.255155 0.469186 0.5
211 1 0.325975 0.145071 0.5
207 1 0.073002 0.50359 0.5
254 1 0.127635 0.582214 0.5
121 1 0.169096 0.571316 0.5
321 1 0.30081 0.58448 0.5
253 1 0.0245248 0.462825 0.5
132 1 0.199634 0.316971 0.5
329 1 0.0916999 0.548225 0.5
310 1 0.25784 0.750321 0.5
289 1 0.18572 0.621954 0.5
120 1 0.0182546 0.762107 0.5
42 1 0.137289 0.393351 0.5
371 1 0.183679 0.502452 0.5
369 1 0.122159 0.473725 0.5
85 1 0.269421 0.631529 0.5
367 1 0.135825 0.956714 0.5
154 1 0.313254 0.664572 0.5
343 1 0.0420819 0.698409 0.5
290 1 0.140541 0.632439 0.5
339 1 0.30654 0.715632 0.5
366 1 0.131102 0.529754 0.5
351 1 0.049236 0.55694 0.5
48 1 0.0434854 0.643103 0.5
47 1 0.303132 0.878507 0.5
216 1 0.0507902 0.852477 0.5
370 1 0.213143 0.709621 0.5
396 1 0.211863 0.558748 0.5
16 1 0.0926303 0.714249 0.5
175 1 0.0769432 0.672904 0.5
128 1 0.0955914 0.631259 0.5
115 1 0.0602687 0.601544 0.5
231 1 0.278653 0.413638 0.5
386 1 0.0983305 0.810102 0.5
384 1 0.224186 0.644465 0.5
169 1 0.311393 0.443115 0.5
238 1 0.130422 0.685748 0.5
44 1 0.256539 0.685493 0.5
98 1 0.217647 0.767281 0.5
239 1 0.259759 0.868461 0.5
129 1 0.171141 0.758282 0.5
234 1 0.221734 0.823452 0.5
324 1 0.171165 0.665361 0.5
304 1 0.257852 0.369597 0.5
317 1 0.173284 0.934451 0.5
3 1 0.262355 0.79705 0.5
113 1 0.32844 0.831923 0.5
145 1 0.174648 0.834785 0.5
279 1 0.211303 0.918716 0.5
27 1 0.171385 0.187539 0.5
221 1 0.215652 0.0218297 0.5
41 1 0.269195 0.944059 0.5
275 1 0.317685 0.0580272 0.5
218 1 0.160097 0.885099 0.5
346 1 0.120034 0.750074 0.5
150 1 0.207634 0.865199 0.5
397 1 0.275692 0.00677983 0.5
394 1 0.115924 0.849555 0.5
49 1 0.136266 0.00650774 0.5
214 1 0.256874 0.10904 0.5
54 1 0.317866 0.946246 0.5
292 1 0.226885 0.152918 0.5
301 1 0.312752 0.786228 0.5
82 1 0.225325 0.971072 0.5
89 1 0.302503 0.100248 0.5
392 1 0.316887 0.989876 0.5
353 1 0.319107 0.369437 0.5
229 1 0.0313569 0.509222 0.5
226 1 0.0080823 0.867021 0.5
69 1 0.00591924 0.660701 0.5
153 1 0.515834 0.914284 0.5
158 1 0.645047 0.54565 0.5
45 1 0.353531 0.527439 0.5
178 1 0.559871 0.151162 0.5
71 1 0.523894 0.11103 0.5
162 1 0.623336 0.0663312 0.5
210 1 0.629867 0.694593 0.5
126 1 0.401169 0.117332 0.5
391 1 0.381276 0.229632 0.5
347 1 0.592061 0.192544 0.5
266 1 0.579822 0.0231933 0.5
255 1 0.609468 0.841677 0.5
294 1 0.499701 0.0759155 0.5
201 1 0.445042 0.202995 0.5
338 1 0.415115 0.170239 0.5
166 1 0.339756 0.617063 0.5
118 1 0.583648 0.23656 0.5
306 1 0.587672 0.104225 0.5
241 1 0.564958 0.961297 0.5
170 1 0.622073 0.887856 0.5
297 1 0.482579 0.128367 0.5
222 1 0.470327 0.277896 0.5
20 1 0.654408 0.926825 0.5
288 1 0.347379 0.0906359 0.5
70 1 0.659339 0.319654 0.5
110 1 0.545239 0.709718 0.5
19 1 0.536793 0.338452 0.5
356 1 0.493744 0.225031 0.5
94 1 0.497233 0.167833 0.5
13 1 0.537848 0.199327 0.5
300 1 0.65314 0.169625 0.5
152 1 0.618031 0.750127 0.5
143 1 0.519459 0.406498 0.5
337 1 0.538996 0.240723 0.5
361 1 0.566897 0.293211 0.5
56 1 0.443523 0.326579 0.5
206 1 0.424257 0.369573 0.5
160 1 0.500581 0.363595 0.5
12 1 0.487611 0.4487 0.5
103 1 0.518461 0.299338 0.5
271 1 0.664475 0.275985 0.5
393 1 0.395827 0.300986 0.5
277 1 0.570295 0.426307 0.5
208 1 0.370047 0.568882 0.5
105 1 0.444698 0.444895 0.5
31 1 0.56207 0.374763 0.5
293 1 0.532709 0.788229 0.5
130 1 0.652808 0.233893 0.5
147 1 0.425971 0.265834 0.5
276 1 0.605334 0.449821 0.5
165 1 0.625057 0.382153 0.5
273 1 0.458931 0.399545 0.5
57 1 0.547165 0.465786 0.5
399 1 0.598121 0.342137 0.5
66 1 0.374511 0.34809 0.5
203 1 0.605947 0.492103 0.5
65 1 0.657662 0.486292 0.5
298 1 0.641592 0.426194 0.5
262 1 0.66017 0.724156 0.5
127 1 0.609897 0.140251 0.5
236 1 0.364983 0.0475983 0.5
270 1 0.422793 0.549364 0.5
328 1 0.368643 0.147816 0.5
373 1 0.354982 0.868823 0.5
198 1 0.390222 0.467243 0.5
332 1 0.399646 0.510577 0.5
374 1 0.508616 0.489342 0.5
278 1 0.619253 0.288926 0.5
383 1 0.351705 0.410938 0.5
333 1 0.444636 0.502636 0.5
177 1 0.404566 0.0622051 0.5
133 1 0.370584 0.808194 0.5
72 1 0.519296 0.549322 0.5
184 1 0.565164 0.520228 0.5
375 1 0.338292 0.196491 0.5
161 1 0.3573 0.668898 0.5
365 1 0.456893 0.680375 0.5
59 1 0.422882 0.597255 0.5
123 1 0.528858 0.617593 0.5
181 1 0.554837 0.577517 0.5
7 1 0.482495 0.523422 0.5
99 1 0.584411 0.611549 0.5
180 1 0.627897 0.988692 0.5
29 1 0.404761 0.680379 0.5
111 1 0.493391 0.701123 0.5
74 1 0.501562 0.655606 0.5
326 1 0.598552 0.550476 0.5
235 1 0.374693 0.719754 0.5
182 1 0.439031 0.792516 0.5
260 1 0.56051 0.663264 0.5
6 1 0.516793 0.746391 0.5
173 1 0.357506 0.271604 0.5
189 1 0.472173 0.569488 0.5
212 1 0.476947 0.616541 0.5
151 1 0.6177 0.640747 0.5
97 1 0.514486 0.826827 0.5
242 1 0.425386 0.728669 0.5
398 1 0.384203 0.620768 0.5
368 1 0.428812 0.640567 0.5
95 1 0.440965 0.134208 0.5
372 1 0.572099 0.915728 0.5
247 1 0.400537 0.767243 0.5
52 1 0.442015 0.874543 0.5
196 1 0.469479 0.738592 0.5
243 1 0.418265 0.830867 0.5
342 1 0.428881 0.932985 0.5
265 1 0.472506 0.927798 0.5
77 1 0.483312 0.779413 0.5
90 1 0.387498 0.943309 0.5
124 1 0.523513 0.00376436 0.5
314 1 0.419996 0.976332 0.5
283 1 0.485464 0.874861 0.5
62 1 0.465546 0.835698 0.5
305 1 0.464461 0.0304784 0.5
319 1 0.559592 0.0672731 0.5
250 1 0.589166 0.716359 0.5
73 1 0.561152 0.833386 0.5
171 1 0.470092 0.980088 0.5
274 1 0.566384 0.755103 0.5
134 1 0.520795 0.958744 0.5
119 1 0.406387 0.0177469 0.5
26 1 0.442611 0.0927924 0.5
232 1 0.591861 0.802138 0.5
43 1 0.394552 0.406897 0.5
228 1 0.397233 0.866922 0.5
51 1 0.341144 0.482102 0.5
334 1 0.530885 0.868888 0.5
381 1 0.633588 0.600419 0.5
142 1 0.365429 0.980939 0.5
18 1 0.339488 0.752001 0.5
112 1 0.352187 0.917582 0.5
312 1 0.652286 0.834258 0.5
296 1 0.348426 0.313747 0.5
376 1 0.662277 0.363825 0.5
84 1 0.662213 0.653419 0.5
188 1 0.665444 0.118269 0.5
168 1 0.768867 0.00461214 0.5
197 1 0.868395 0.990259 0.5
355 1 0.872377 0.0362111 0.5
287 1 0.793067 0.951393 0.5
382 1 0.908733 0.012981 0.5
136 1 0.834523 0.0611647 0.5
220 1 0.725581 0.29971 0.5
219 1 0.893147 0.836359 0.5
86 1 0.731585 0.983171 0.5
157 1 0.816064 0.0167821 0.5
331 1 0.945584 0.0957543 0.5
307 1 0.877738 0.0778201 0.5
148 1 0.947266 0.241652 0.5
34 1 0.848341 0.117192 0.5
76 1 0.888944 0.13286 0.5
96 1 0.800763 0.829325 0.5
388 1 0.713261 0.134597 0.5
215 1 0.745307 0.0571336 0.5
10 1 0.861277 0.214582 0.5
230 1 0.708256 0.903433 0.5
340 1 0.70661 0.0795351 0.5
387 1 0.716295 0.0235221 0.5
138 1 0.890414 0.302199 0.5
172 1 0.748767 0.944092 0.5
327 1 0.80039 0.131835 0.5
185 1 0.791432 0.075278 0.5
341 1 0.929319 0.286652 0.5
237 1 0.911495 0.940309 0.5
195 1 0.679976 0.868163 0.5
217 1 0.940894 0.689099 0.5
244 1 0.843652 0.160014 0.5
106 1 0.836057 0.271243 0.5
359 1 0.901224 0.254462 0.5
2 1 0.74809 0.25034 0.5
313 1 0.966245 0.392715 0.5
320 1 0.79958 0.175759 0.5
61 1 0.954561 0.927605 0.5
318 1 0.747059 0.392175 0.5
245 1 0.808268 0.218625 0.5
114 1 0.7444 0.349668 0.5
109 1 0.895074 0.355991 0.5
209 1 0.763795 0.207492 0.5
35 1 0.792854 0.317773 0.5
187 1 0.943028 0.328846 0.5
28 1 0.843881 0.319973 0.5
149 1 0.789602 0.273379 0.5
79 1 0.935538 0.58693 0.5
155 1 0.923615 0.391814 0.5
25 1 0.692858 0.193317 0.5
46 1 0.736016 0.486977 0.5
246 1 0.787865 0.371198 0.5
358 1 0.704499 0.404716 0.5
36 1 0.669984 0.770815 0.5
311 1 0.761681 0.431259 0.5
81 1 0.986097 0.433395 0.5
92 1 0.709494 0.747121 0.5
264 1 0.70248 0.337932 0.5
315 1 0.742737 0.549899 0.5
137 1 0.822427 0.484471 0.5
15 1 0.771402 0.619362 0.5
309 1 0.75795 0.902436 0.5
269 1 0.693791 0.505771 0.5
344 1 0.827653 0.411588 0.5
88 1 0.822942 0.53641 0.5
303 1 0.926261 0.441676 0.5
364 1 0.800411 0.448089 0.5
14 1 0.92949 0.1531 0.5
125 1 0.773353 0.509662 0.5
354 1 0.878612 0.453619 0.5
117 1 0.962905 0.526184 0.5
350 1 0.694687 0.550363 0.5
193 1 0.970182 0.481526 0.5
395 1 0.789164 0.572468 0.5
233 1 0.847536 0.369165 0.5
93 1 0.91902 0.493235 0.5
205 1 0.680078 0.597792 0.5
295 1 0.88103 0.409134 0.5
200 1 0.86743 0.558202 0.5
30 1 0.931727 0.884902 0.5
349 1 0.865245 0.511189 0.5
146 1 0.882804 0.602124 0.5
91 1 0.719863 0.697038 0.5
204 1 0.832922 0.5812 0.5
299 1 0.843542 0.629931 0.5
263 1 0.876867 0.728471 0.5
5 1 0.845585 0.672387 0.5
240 1 0.920301 0.6285 0.5
102 1 0.955883 0.0108461 0.5
249 1 0.709682 0.643933 0.5
258 1 0.75711 0.666005 0.5
164 1 0.765732 0.71559 0.5
284 1 0.846557 0.780836 0.5
108 1 0.89513 0.687602 0.5
267 1 0.884021 0.176649 0.5
163 1 0.909088 0.541191 0.5
39 1 0.722501 0.600457 0.5
21 1 0.964591 0.626564 0.5
159 1 0.751008 0.108538 0.5
257 1 0.972171 0.144186 0.5
280 1 0.697101 0.245754 0.5
101 1 0.749332 0.774542 0.5
190 1 0.967438 0.0515358 0.5
50 1 0.675357 0.0382026 0.5
53 1 0.795486 0.784957 0.5
194 1 0.797039 0.650933 0.5
131 1 0.669035 0.982635 0.5
63 1 0.694323 0.448409 0.5
32 1 0.69661 0.815 0.5
78 1 0.889872 0.784559 0.5
302 1 0.96667 0.742576 0.5
213 1 0.922865 0.730846 0.5
268 1 0.81891 0.914069 0.5
23 1 0.818772 0.870312 0.5
378 1 0.979662 0.272285 0.5
191 1 0.918674 0.0614866 0.5
336 1 0.936605 0.843113 0.5
261 1 0.739958 0.854121 0.5
325 1 0.977846 0.812962 0.5
224 1 0.699756 0.952571 0.5
139 1 0.851094 0.82372 0.5
363 1 0.873842 0.88443 0.5
4 1 0.806848 0.705352 0.5
83 1 0.956191 0.195571 0.5
17 1 0.996523 0.913427 0.5
107 1 0.866989 0.942711 0.5
140 1 0.943304 0.78293 0.5
286 1 0.968253 0.969419 0.5
167 1 0.757765 0.156428 0.5
174 1 0.998623 0.707387 0.5
58 1 0.990459 0.0889089 0.5
11 1 0.999653 0.588142 0.5
390 1 0.991763 0.327456 0.5
64 1 0.997978 0.210139 0.5
