LAMMPS (15 Sep 2022)
OMP_NUM_THREADS environment is not set. Defaulting to 1 thread. (src/comm.cpp:98)
  using 1 OpenMP thread(s) per MPI task
Reading restart file ...
  restart file = 15 Sep 2022, LAMMPS = 15 Sep 2022
  restoring atom style atomic from restart
  orthogonal box = (0 0 0) to (7.368063 7.368063 7.368063)
  1 by 2 by 2 MPI processor grid
  restoring pair style lj/cut from restart
  480 atoms
  read_restart CPU = 0.035 seconds
Setting up equilibration run
Resetting global fix info from restart file:
  fix style: nvt, fix ID: 1
Generated 0 of 1 mixed pair_coeff terms from geometric mixing rule
All restart file global fix info was re-assigned
Neighbor list info ...
  update: every = 1 steps, delay = 20 steps, check = yes
  max neighbors/atom: 2000, page size: 100000
  master list distance cutoff = 3
  ghost atom cutoff = 3
  binsize = 1.5, bins = 5 5 5
  1 neighbor lists, perpetual/occasional/extra = 1 0 0
  (1) pair lj/cut, perpetual
      attributes: half, newton on
      pair build: half/bin/atomonly/newton
      stencil: half/bin/3d
      bin: standard
Setting up Verlet run ...
  Unit style    : lj
  Current step  : 0
  Time step     : 0.002
Per MPI rank memory allocation (min/avg/max) = 3.147 | 3.147 | 3.147 Mbytes
   Step          Temp          E_pair         E_mol          TotEng         Press     
         0   1.5455863     -5.2724744      0             -2.9589249      15.073274    
      1000   1.5233029     -5.3210344      0             -3.0408403      15.026716    
      2000   1.5059367     -5.3053005      0             -3.0511015      14.771       
      2500   1.5409763     -5.2419338      0             -2.9352849      15.11035     
Loop time of 0.340253 on 4 procs for 2500 steps with 480 atoms

Performance: 1269642.289 tau/day, 7347.467 timesteps/s, 3.527 Matom-step/s
98.2% CPU use with 4 MPI tasks x 1 OpenMP threads

MPI task timing breakdown:
Section |  min time  |  avg time  |  max time  |%varavg| %total
---------------------------------------------------------------
Pair    | 0.1784     | 0.19058    | 0.19821    |   1.7 | 56.01
Neigh   | 0.020878   | 0.021802   | 0.022319   |   0.4 |  6.41
Comm    | 0.087143   | 0.094071   | 0.1019     |   1.9 | 27.65
Output  | 0.015525   | 0.019066   | 0.025992   |   3.0 |  5.60
Modify  | 0.0084813  | 0.0091504  | 0.0097212  |   0.5 |  2.69
Other   |            | 0.00558    |            |       |  1.64

Nlocal:            120 ave         124 max         113 min
Histogram: 1 0 0 0 0 0 1 0 0 2
Nghost:           1387 ave        1416 max        1357 min
Histogram: 1 0 0 1 0 0 1 0 0 1
Neighs:        6925.75 ave        7095 max        6654 min
Histogram: 1 0 0 0 0 0 0 2 0 1

Total # of neighbors = 27703
Ave neighs/atom = 57.714583
Neighbor list builds = 88
Dangerous builds = 0
Total wall time: 0:00:00
LAMMPS (15 Sep 2022)
OMP_NUM_THREADS environment is not set. Defaulting to 1 thread. (src/comm.cpp:98)
  using 1 OpenMP thread(s) per MPI task
Reading restart file ...
  restart file = 15 Sep 2022, LAMMPS = 15 Sep 2022
  restoring atom style atomic from restart
  orthogonal box = (0 0 0) to (7.368063 7.368063 7.368063)
  1 by 2 by 2 MPI processor grid
  restoring pair style lj/cut from restart
  480 atoms
  read_restart CPU = 0.027 seconds
Setting up equilibration run
Resetting global fix info from restart file:
  fix style: nvt, fix ID: 1
Generated 0 of 1 mixed pair_coeff terms from geometric mixing rule
All restart file global fix info was re-assigned
Neighbor list info ...
  update: every = 1 steps, delay = 20 steps, check = yes
  max neighbors/atom: 2000, page size: 100000
  master list distance cutoff = 3
  ghost atom cutoff = 3
  binsize = 1.5, bins = 5 5 5
  1 neighbor lists, perpetual/occasional/extra = 1 0 0
  (1) pair lj/cut, perpetual
      attributes: half, newton on
      pair build: half/bin/atomonly/newton
      stencil: half/bin/3d
      bin: standard
Setting up Verlet run ...
  Unit style    : lj
  Current step  : 0
  Time step     : 0.002
Per MPI rank memory allocation (min/avg/max) = 3.147 | 3.148 | 3.148 Mbytes
   Step          Temp          E_pair         E_mol          TotEng         Press     
         0   1.0205509     -6.004798       0             -4.4771609      10.145833    
      2000   1.0256116     -5.9292717      0             -4.3940593      10.4944      
      4000   0.99093862    -6.0262735      0             -4.5429623      9.7398996    
      6000   1.0221552     -5.9509255      0             -4.4208869      10.225098    
      8000   1.0345702     -6.0667867      0             -4.5181645      9.6585883    
     10000   0.98149121    -6.0651403      0             -4.5959707      9.4973223    
     12000   1.0316096     -5.9981127      0             -4.4539221      10.137851    
     12500   1.0259106     -5.9686164      0             -4.4329564      10.246734    
Loop time of 1.54999 on 4 procs for 12500 steps with 480 atoms

Performance: 1393557.676 tau/day, 8064.570 timesteps/s, 3.871 Matom-step/s
98.7% CPU use with 4 MPI tasks x 1 OpenMP threads

MPI task timing breakdown:
Section |  min time  |  avg time  |  max time  |%varavg| %total
---------------------------------------------------------------
Pair    | 0.90668    | 0.9282     | 0.96375    |   2.4 | 59.88
Neigh   | 0.084143   | 0.08604    | 0.087888   |   0.5 |  5.55
Comm    | 0.39363    | 0.42787    | 0.44883    |   3.3 | 27.60
Output  | 0.035469   | 0.040389   | 0.05047    |   3.0 |  2.61
Modify  | 0.04279    | 0.044713   | 0.046493   |   0.7 |  2.88
Other   |            | 0.02278    |            |       |  1.47

Nlocal:            120 ave         123 max         113 min
Histogram: 1 0 0 0 0 0 0 0 1 2
Nghost:         1371.5 ave        1395 max        1350 min
Histogram: 1 0 1 0 0 0 1 0 0 1
Neighs:        6919.25 ave        7247 max        6427 min
Histogram: 1 0 0 0 0 0 1 1 0 1

Total # of neighbors = 27677
Ave neighs/atom = 57.660417
Neighbor list builds = 349
Dangerous builds = 0
Total wall time: 0:00:01
LAMMPS (15 Sep 2022)
OMP_NUM_THREADS environment is not set. Defaulting to 1 thread. (src/comm.cpp:98)
  using 1 OpenMP thread(s) per MPI task
Reading restart file ...
  restart file = 15 Sep 2022, LAMMPS = 15 Sep 2022
  restoring atom style atomic from restart
  orthogonal box = (0 0 0) to (7.368063 7.368063 7.368063)
  1 by 2 by 2 MPI processor grid
  restoring pair style lj/cut from restart
  480 atoms
  read_restart CPU = 0.024 seconds
Setting up equilibration run
Resetting global fix info from restart file:
  fix style: nvt, fix ID: 1
Generated 0 of 1 mixed pair_coeff terms from geometric mixing rule
All restart file global fix info was re-assigned
Neighbor list info ...
  update: every = 1 steps, delay = 25 steps, check = yes
  max neighbors/atom: 2000, page size: 100000
  master list distance cutoff = 3
  ghost atom cutoff = 3
  binsize = 1.5, bins = 5 5 5
  1 neighbor lists, perpetual/occasional/extra = 1 0 0
  (1) pair lj/cut, perpetual
      attributes: half, newton on
      pair build: half/bin/atomonly/newton
      stencil: half/bin/3d
      bin: standard
Setting up Verlet run ...
  Unit style    : lj
  Current step  : 0
  Time step     : 0.002
Per MPI rank memory allocation (min/avg/max) = 3.146 | 3.147 | 3.147 Mbytes
   Step          Temp          E_pair         E_mol          TotEng         Press     
         0   0.89745427    -6.2434841      0             -4.9001073      8.3090823    
      5000   0.95383815    -6.1878653      0             -4.7600889      8.7599373    
     10000   0.89758887    -6.2621552      0             -4.9185768      8.2456499    
     15000   0.90630984    -6.1481265      0             -4.7914939      8.9869587    
     20000   0.894579      -6.1859706      0             -4.8468976      8.7211365    
     25000   0.92550055    -6.1488967      0             -4.763538       9.0300371    
     30000   0.87096174    -6.1876853      0             -4.8839645      8.7455918    
     35000   0.92608707    -6.1341765      0             -4.74794        9.0744562    
     37500   0.9154793     -6.2632287      0             -4.8928706      8.2603157    
Loop time of 4.50053 on 4 procs for 37500 steps with 480 atoms

Performance: 1439830.367 tau/day, 8332.352 timesteps/s, 4.000 Matom-step/s
99.2% CPU use with 4 MPI tasks x 1 OpenMP threads

MPI task timing breakdown:
Section |  min time  |  avg time  |  max time  |%varavg| %total
---------------------------------------------------------------
Pair    | 2.7247     | 2.7945     | 2.8528     |   2.7 | 62.09
Neigh   | 0.23894    | 0.24198    | 0.24783    |   0.7 |  5.38
Comm    | 1.1595     | 1.2251     | 1.2948     |   4.3 | 27.22
Output  | 0.045456   | 0.050524   | 0.061045   |   2.8 |  1.12
Modify  | 0.1299     | 0.13361    | 0.13807    |   0.8 |  2.97
Other   |            | 0.05478    |            |       |  1.22

Nlocal:            120 ave         126 max         115 min
Histogram: 1 1 0 0 0 0 1 0 0 1
Nghost:        1358.25 ave        1375 max        1347 min
Histogram: 1 0 1 1 0 0 0 0 0 1
Neighs:         6923.5 ave        7261 max        6672 min
Histogram: 1 0 1 0 1 0 0 0 0 1

Total # of neighbors = 27694
Ave neighs/atom = 57.695833
Neighbor list builds = 985
Dangerous builds = 0
Total wall time: 0:00:04
LAMMPS (15 Sep 2022)
OMP_NUM_THREADS environment is not set. Defaulting to 1 thread. (src/comm.cpp:98)
  using 1 OpenMP thread(s) per MPI task
Reading restart file ...
  restart file = 15 Sep 2022, LAMMPS = 15 Sep 2022
  restoring atom style atomic from restart
  orthogonal box = (0 0 0) to (7.368063 7.368063 7.368063)
  1 by 2 by 2 MPI processor grid
  restoring pair style lj/cut from restart
  480 atoms
  read_restart CPU = 0.016 seconds
Setting up equilibration run
Resetting global fix info from restart file:
  fix style: nvt, fix ID: 1
Generated 0 of 1 mixed pair_coeff terms from geometric mixing rule
All restart file global fix info was re-assigned
Neighbor list info ...
  update: every = 1 steps, delay = 25 steps, check = yes
  max neighbors/atom: 2000, page size: 100000
  master list distance cutoff = 3
  ghost atom cutoff = 3
  binsize = 1.5, bins = 5 5 5
  1 neighbor lists, perpetual/occasional/extra = 1 0 0
  (1) pair lj/cut, perpetual
      attributes: half, newton on
      pair build: half/bin/atomonly/newton
      stencil: half/bin/3d
      bin: standard
Setting up Verlet run ...
  Unit style    : lj
  Current step  : 0
  Time step     : 0.002
Per MPI rank memory allocation (min/avg/max) = 3.148 | 3.148 | 3.148 Mbytes
   Step          Temp          E_pair         E_mol          TotEng         Press     
         0   0.78442075    -6.3747841      0             -5.2006042      7.5266008    
      5000   0.79424999    -6.4005385      0             -5.2116456      7.252618     
     10000   0.77827985    -6.390359       0             -5.2253713      7.3730493    
     15000   0.82131299    -6.3502696      0             -5.1208667      7.5666707    
     20000   0.81956558    -6.3746269      0             -5.1478397      7.5035162    
     25000   0.79733897    -6.3821966      0             -5.1886799      7.2728896    
     30000   0.7702247     -6.2602429      0             -5.1073128      8.1826066    
     35000   0.78870334    -6.353301       0             -5.1727107      7.6938163    
     37500   0.80596517    -6.3125552      0             -5.1061261      7.7760025    
Loop time of 4.45917 on 4 procs for 37500 steps with 480 atoms

Performance: 1453185.594 tau/day, 8409.639 timesteps/s, 4.037 Matom-step/s
99.2% CPU use with 4 MPI tasks x 1 OpenMP threads

MPI task timing breakdown:
Section |  min time  |  avg time  |  max time  |%varavg| %total
---------------------------------------------------------------
Pair    | 2.7012     | 2.7615     | 2.7881     |   2.1 | 61.93
Neigh   | 0.22411    | 0.2269     | 0.22872    |   0.4 |  5.09
Comm    | 1.193      | 1.2253     | 1.2863     |   3.2 | 27.48
Output  | 0.046084   | 0.051548   | 0.062671   |   2.9 |  1.16
Modify  | 0.13443    | 0.13689    | 0.13955    |   0.6 |  3.07
Other   |            | 0.05699    |            |       |  1.28

Nlocal:            120 ave         123 max         117 min
Histogram: 1 1 0 0 0 0 0 0 1 1
Nghost:         1388.5 ave        1394 max        1385 min
Histogram: 1 0 1 1 0 0 0 0 0 1
Neighs:        6932.25 ave        7110 max        6765 min
Histogram: 1 0 1 0 0 0 1 0 0 1

Total # of neighbors = 27729
Ave neighs/atom = 57.76875
Neighbor list builds = 923
Dangerous builds = 0
Total wall time: 0:00:04
LAMMPS (15 Sep 2022)
OMP_NUM_THREADS environment is not set. Defaulting to 1 thread. (src/comm.cpp:98)
  using 1 OpenMP thread(s) per MPI task
Reading restart file ...
  restart file = 15 Sep 2022, LAMMPS = 15 Sep 2022
  restoring atom style atomic from restart
  orthogonal box = (0 0 0) to (7.368063 7.368063 7.368063)
  1 by 2 by 2 MPI processor grid
  restoring pair style lj/cut from restart
  480 atoms
  read_restart CPU = 0.004 seconds
Setting up equilibration run
Resetting global fix info from restart file:
  fix style: nvt, fix ID: 1
Generated 0 of 1 mixed pair_coeff terms from geometric mixing rule
All restart file global fix info was re-assigned
Neighbor list info ...
  update: every = 1 steps, delay = 25 steps, check = yes
  max neighbors/atom: 2000, page size: 100000
  master list distance cutoff = 3
  ghost atom cutoff = 3
  binsize = 1.5, bins = 5 5 5
  1 neighbor lists, perpetual/occasional/extra = 1 0 0
  (1) pair lj/cut, perpetual
      attributes: half, newton on
      pair build: half/bin/atomonly/newton
      stencil: half/bin/3d
      bin: standard
Setting up Verlet run ...
  Unit style    : lj
  Current step  : 0
  Time step     : 0.003
Per MPI rank memory allocation (min/avg/max) = 3.149 | 3.149 | 3.15 Mbytes
   Step          Temp          E_pair         E_mol          TotEng         Press     
         0   0.75113336    -6.5615076      0             -5.4371548      6.3628175    
      6000   0.68664741    -6.527639       0             -5.4998136      6.3522868    
     12000   0.68366333    -6.5042178      0             -5.4808592      6.504997     
     18000   0.70000417    -6.4516673      0             -5.4038486      6.8476912    
     24000   0.70908601    -6.6241006      0             -5.5626875      5.8477343    
     30000   0.64716735    -6.4732702      0             -5.5045416      6.6267262    
     36000   0.70693618    -6.5387519      0             -5.4805569      6.2733254    
     42000   0.67186458    -6.4873923      0             -5.481695       6.5260737    
     45000   0.75068985    -6.4722189      0             -5.34853        6.7331728    
Loop time of 5.49167 on 4 procs for 45000 steps with 480 atoms

Performance: 2123942.910 tau/day, 8194.224 timesteps/s, 3.933 Matom-step/s
99.2% CPU use with 4 MPI tasks x 1 OpenMP threads

MPI task timing breakdown:
Section |  min time  |  avg time  |  max time  |%varavg| %total
---------------------------------------------------------------
Pair    | 3.3135     | 3.3607     | 3.4073     |   1.8 | 61.20
Neigh   | 0.36523    | 0.37124    | 0.37603    |   0.8 |  6.76
Comm    | 1.4487     | 1.4914     | 1.5444     |   2.9 | 27.16
Output  | 0.046751   | 0.052098   | 0.062961   |   2.8 |  0.95
Modify  | 0.15751    | 0.16226    | 0.1663     |   0.9 |  2.95
Other   |            | 0.05402    |            |       |  0.98

Nlocal:            120 ave         125 max         117 min
Histogram: 1 1 0 1 0 0 0 0 0 1
Nghost:        1394.75 ave        1416 max        1381 min
Histogram: 1 1 0 0 1 0 0 0 0 1
Neighs:        6904.75 ave        7212 max        6721 min
Histogram: 2 0 0 0 1 0 0 0 0 1

Total # of neighbors = 27619
Ave neighs/atom = 57.539583
Neighbor list builds = 1506
Dangerous builds = 121
Total wall time: 0:00:05
LAMMPS (15 Sep 2022)
OMP_NUM_THREADS environment is not set. Defaulting to 1 thread. (src/comm.cpp:98)
  using 1 OpenMP thread(s) per MPI task
Reading restart file ...
ERROR on proc 0: Cannot open restart file equil/kalj_T0.65_n480_v400_350000_1.final.lmprestart.350000: No such file or directory (src/read_restart.cpp:113)
Last command: read_restart ${prevbasename}.final.lmprestart.${steps}
--------------------------------------------------------------------------
MPI_ABORT was invoked on rank 0 in communicator MPI_COMM_WORLD
with errorcode 1.

NOTE: invoking MPI_ABORT causes Open MPI to kill all MPI processes.
You may or may not see output from other processes, depending on
exactly when Open MPI kills them.
--------------------------------------------------------------------------
Error: LAMMPS production simulation at temperature 0.65 failed.
