
include ${pot}.lmp
include kalj.lmp
units lj
atom_style atomic

variable dimensions equal 3
variable density equal 1.2
variable fraca equal 0.8

dimension ${dimensions}
dimension 3
read_restart ${prevbasename}.final.lmprestart.${prevsteps}
read_restart equil/kalj_T0.7_n480_v400_180000_1.final.lmprestart.${prevsteps}
read_restart equil/kalj_T0.7_n480_v400_180000_1.final.lmprestart.180000
Reading restart file ...
  restart file = 15 Sep 2022, LAMMPS = 15 Sep 2022
  restoring atom style atomic from restart
  orthogonal box = (0 0 0) to (7.368063 7.368063 7.368063)
  1 by 2 by 2 MPI processor grid
  restoring pair style lj/cut from restart
  480 atoms
  read_restart CPU = 0.002 seconds
include ${pot}_particles.lmp
include kalj_particles.lmp
mass * 1.0 #  set mass 1.0 for all types

pair_style lj/cut 2.5
#pair coeffs type1 type2 eps sigma
pair_coeff 1 1 1.0 1.00 2.5
pair_coeff 1 2 1.5 0.80 2.0
pair_coeff 2 2 0.5 0.88 2.2
pair_modify shift yes
reset_timestep 0

print "Setting up annealing run"
Setting up annealing run
dump 1 all atom ${dumptime} ${basename}.lammpstrj
dump 1 all atom 70000 ${basename}.lammpstrj
dump 1 all atom 70000 equil/kalj_T0.65_n480_v400_350000_1.lammpstrj
#dump_modify 1 sort id scale no

restart ${restarttime} ${basename}.restart
restart 350000 ${basename}.restart
restart 350000 equil/kalj_T0.65_n480_v400_350000_1.restart
restart ${steps} ${basename}.final.lmprestart
restart 350000 ${basename}.final.lmprestart
restart 350000 equil/kalj_T0.65_n480_v400_350000_1.final.lmprestart

thermo ${thermotime}
thermo 70000
timestep ${timestep}
timestep 0.003

neighbor 0.5 bin
neigh_modify every 1 delay ${neighborstep} check yes
neigh_modify every 1 delay 25 check yes

velocity all create ${temp} ${id} dist gaussian
velocity all create 0.65 ${id} dist gaussian
velocity all create 0.65 1 dist gaussian
fix 1 all nvt temp ${temp} ${temp} ${taut}
fix 1 all nvt temp 0.65 ${temp} ${taut}
fix 1 all nvt temp 0.65 0.65 ${taut}
fix 1 all nvt temp 0.65 0.65 0.3
Resetting global fix info from restart file:
  fix style: nvt, fix ID: 1
run ${steps}
run 350000
Generated 0 of 1 mixed pair_coeff terms from geometric mixing rule
All restart file global fix info was re-assigned
Neighbor list info ...
  update: every = 1 steps, delay = 25 steps, check = yes
  max neighbors/atom: 2000, page size: 100000
  master list distance cutoff = 3
  ghost atom cutoff = 3
  binsize = 1.5, bins = 5 5 5
  1 neighbor lists, perpetual/occasional/extra = 1 0 0
  (1) pair lj/cut, perpetual
      attributes: half, newton on
      pair build: half/bin/atomonly/newton
      stencil: half/bin/3d
      bin: standard
Per MPI rank memory allocation (min/avg/max) = 4.124 | 4.125 | 4.125 Mbytes
   Step          Temp          E_pair         E_mol          TotEng         Press     
         0   0.65          -6.5615076      0             -5.5885388      6.2417103    
     70000   0.6037572     -6.6798502      0             -5.7761012      5.3114611    
    140000   0.61992503    -6.6126787      0             -5.6847284      5.8019158    
    210000   0.63262099    -6.6044614      0             -5.6575069      5.8124713    
    280000   0.668249      -6.5289766      0             -5.5286914      6.2958493    
    350000   0.6675991     -6.5984035      0             -5.5990911      5.8530659    
Loop time of 39.255 on 4 procs for 350000 steps with 480 atoms

Performance: 2311040.917 tau/day, 8916.053 timesteps/s, 4.280 Matom-step/s
99.6% CPU use with 4 MPI tasks x 1 OpenMP threads

MPI task timing breakdown:
Section |  min time  |  avg time  |  max time  |%varavg| %total
---------------------------------------------------------------
Pair    | 25.456     | 25.953     | 26.427     |   8.5 | 66.11
Neigh   | 2.7094     | 2.735      | 2.7903     |   2.0 |  6.97
Comm    | 8.8099     | 9.2494     | 9.744      |  14.4 | 23.56
Output  | 0.0017628  | 0.0017778  | 0.0018222  |   0.1 |  0.00
Modify  | 0.97688    | 0.99801    | 1.0162     |   1.7 |  2.54
Other   |            | 0.318      |            |       |  0.81

Nlocal:            120 ave         122 max         117 min
Histogram: 1 0 0 0 0 0 1 0 1 1
Nghost:        1380.25 ave        1387 max        1371 min
Histogram: 1 0 0 0 0 0 2 0 0 1
Neighs:           6928 ave        7131 max        6622 min
Histogram: 1 0 0 0 0 0 1 1 0 1

Total # of neighbors = 27712
Ave neighs/atom = 57.733333
Neighbor list builds = 11296
Dangerous builds = 550
Total wall time: 0:00:39
