ITEM: TIMESTEP
0
ITEM: NUMBER OF ATOMS
480
ITEM: BOX BOUNDS pp pp pp
0.0000000000000000e+00 7.3680629972807701e+00
0.0000000000000000e+00 7.3680629972807701e+00
0.0000000000000000e+00 7.3680629972807701e+00
ITEM: ATOMS id type xs ys zs
72 1 0.183503 0.047152 0.131888
35 1 0.0391211 0.122501 0.138419
383 1 0.150832 0.190163 0.103437
292 1 0.0545615 0.243762 0.199277
175 1 0.136019 0.0824625 0.00185155
89 1 0.231594 0.167771 0.235588
268 1 0.0213808 0.219235 0.037129
418 2 0.242104 0.0431882 0.0147244
414 2 0.24381 0.192701 0.0278909
303 1 0.298972 0.113746 0.0942504
243 1 0.43867 0.153394 0.151928
161 1 0.349003 0.074489 0.224658
390 2 0.342015 0.205397 0.217832
304 1 0.441687 0.0686647 0.0450131
172 1 0.404629 0.214809 0.0154758
245 1 0.470774 0.0067096 0.173053
356 1 0.574927 0.0968479 0.108876
60 1 0.705655 0.0512311 0.150792
162 1 0.666715 0.19728 0.124512
348 1 0.561695 0.203492 0.224245
64 1 0.535746 0.238869 0.0673333
476 2 0.673521 0.14341 0.233774
401 2 0.748219 0.147935 0.0630244
115 1 0.69714 0.0495002 0.00189504
287 1 0.7956 0.162907 0.187069
106 1 0.86887 0.175661 0.0566194
386 2 0.892961 0.11598 0.148617
54 1 0.91319 0.22558 0.195077
40 1 0.823363 0.0310468 0.220085
70 1 0.821134 0.0479381 0.0846705
65 1 0.980752 0.0776917 0.0235762
328 1 0.948425 0.0093862 0.143231
174 1 0.0590338 0.461778 0.0571901
221 1 0.0684446 0.39411 0.178888
61 1 0.237726 0.418439 0.106897
53 1 0.131077 0.338172 0.0405393
248 1 0.188846 0.314917 0.203941
445 2 0.00945201 0.344673 0.0597401
69 1 0.299008 0.252133 0.114465
415 2 0.263555 0.442391 0.230427
359 1 0.425364 0.33049 0.116778
214 1 0.323883 0.336608 0.22376
250 1 0.375635 0.456759 0.152663
466 2 0.445127 0.392827 0.221163
442 2 0.340055 0.352368 0.0561087
259 1 0.448062 0.286115 0.242085
143 1 0.515325 0.473972 0.170342
241 1 0.537433 0.391253 0.0463781
230 1 0.714963 0.332136 0.144898
179 1 0.579694 0.340741 0.177574
107 1 0.65584 0.459041 0.121551
462 2 0.634794 0.299218 0.0687244
334 1 0.755439 0.270947 0.0322191
216 1 0.775091 0.464378 0.224032
449 2 0.825612 0.276459 0.13062
169 1 0.925627 0.371684 0.159014
227 1 0.805255 0.426891 0.0863974
202 1 0.927483 0.453297 0.0159655
460 2 0.873832 0.476348 0.171118
204 1 0.898034 0.307956 0.0432196
260 1 0.112579 0.0246916 0.381729
100 1 0.205924 0.151884 0.385999
117 1 0.0984932 0.125204 0.262872
256 1 0.221921 0.034313 0.288517
396 2 0.0864993 0.153407 0.37817
97 1 0.0730165 0.246279 0.468562
145 1 0.234835 0.0521681 0.499303
452 2 0.307747 0.134936 0.458305
278 1 0.340403 0.0358754 0.36444
318 1 0.340233 0.19038 0.336174
266 1 0.457883 0.120199 0.321126
136 1 0.423025 0.125435 0.459983
62 1 0.47971 0.241997 0.395469
447 2 0.437711 0.0115158 0.427261
371 1 0.565444 0.0642935 0.255278
265 1 0.566042 0.154975 0.498714
405 2 0.659876 0.0371869 0.340654
185 1 0.553186 0.048644 0.395199
46 1 0.594052 0.171579 0.35121
228 1 0.681655 0.0843024 0.445908
21 1 0.73941 0.119262 0.325458
283 1 0.695599 0.241191 0.27252
26 1 0.685785 0.230592 0.432211
279 1 0.99504 0.204289 0.337795
80 1 0.988677 0.0773464 0.401769
391 2 0.811823 0.0299366 0.449209
335 1 0.955373 0.0890083 0.254863
477 2 0.909618 0.156628 0.414716
235 1 0.807951 0.167566 0.461612
367 1 0.863666 0.0614631 0.356618
85 1 0.836165 0.21523 0.324049
157 1 0.0394073 0.468934 0.314638
479 2 0.127515 0.384405 0.281665
411 2 0.0445821 0.299423 0.378993
374 1 0.100555 0.394525 0.423893
71 1 0.137615 0.261114 0.32082
190 1 0.248035 0.425235 0.350807
23 1 0.228742 0.295582 0.42238
480 2 0.21086 0.444098 0.475743
332 1 0.348366 0.251852 0.474555
463 2 0.255819 0.261465 0.302377
219 1 0.453805 0.360744 0.466214
183 1 0.358659 0.474858 0.290434
191 1 0.348664 0.326506 0.352232
408 2 0.392891 0.436702 0.41389
52 1 0.470902 0.408972 0.333666
49 1 0.31833 0.388624 0.493057
272 1 0.581553 0.303252 0.476527
465 2 0.702657 0.361189 0.258587
88 1 0.57857 0.441851 0.419276
184 1 0.637187 0.450937 0.297116
91 1 0.591477 0.311805 0.327261
320 1 0.698769 0.409026 0.479987
456 2 0.742951 0.299338 0.358173
428 2 0.523994 0.499003 0.283482
134 1 0.839092 0.466368 0.467961
322 1 0.803401 0.323742 0.450426
381 1 0.825983 0.327194 0.250631
264 1 0.939557 0.266556 0.458209
237 1 0.992687 0.335674 0.285339
226 1 0.761052 0.418709 0.351051
378 1 0.897233 0.443008 0.286031
135 1 0.960032 0.395986 0.412359
450 2 0.871193 0.34607 0.358509
147 1 0.179413 0.0930859 0.623012
311 1 0.0783498 0.225917 0.608583
424 2 0.0232085 0.0972248 0.604028
57 1 0.196177 0.205598 0.51964
218 1 0.191252 0.0252397 0.748049
81 1 0.0745684 0.124866 0.709173
472 2 0.186401 0.208299 0.627041
267 1 0.138464 0.248444 0.740979
270 1 0.104434 0.0974024 0.504831
66 1 0.315142 0.145836 0.572195
478 2 0.37389 0.21289 0.663511
306 1 0.387126 0.0881188 0.699477
324 1 0.272756 0.155893 0.713942
275 1 0.455667 0.153882 0.593022
413 2 0.41876 0.0304928 0.60061
468 2 0.484881 0.237961 0.509011
229 1 0.513675 0.193096 0.73991
213 1 0.514423 0.0168309 0.675523
25 1 0.723527 0.147733 0.579013
305 1 0.594724 0.131561 0.635653
455 2 0.695672 0.085522 0.66491
158 1 0.69026 0.219574 0.706819
182 1 0.515861 0.0285432 0.529184
300 1 0.653243 0.00774999 0.578896
443 2 0.638208 0.223871 0.542278
56 1 0.931856 0.0398576 0.678222
247 1 0.817388 0.139416 0.690964
131 1 0.957921 0.178891 0.668792
119 1 0.841781 0.0693289 0.545369
166 1 0.952786 0.147804 0.528729
293 1 0.860179 0.249545 0.580738
309 1 0.983115 0.00816772 0.531242
84 1 0.126049 0.363694 0.661409
153 1 0.166134 0.346018 0.535631
103 1 0.0228815 0.367082 0.537865
333 1 0.236515 0.452792 0.609539
39 1 0.104817 0.493253 0.539099
475 2 0.121045 0.477985 0.664581
19 1 0.00100112 0.458498 0.649691
271 1 0.256188 0.35544 0.709527
171 1 0.287603 0.287208 0.599764
246 1 0.430945 0.293805 0.598593
180 1 0.371543 0.411583 0.65358
421 2 0.457443 0.406754 0.572962
288 1 0.382634 0.291333 0.749135
280 1 0.487229 0.488766 0.651123
201 1 0.577748 0.271074 0.630309
197 1 0.504867 0.365332 0.70834
146 1 0.578237 0.413055 0.573003
365 1 0.669307 0.365605 0.70213
370 1 0.722287 0.306215 0.59061
399 2 0.579921 0.292685 0.746812
429 2 0.591066 0.45254 0.691753
144 1 0.677443 0.49534 0.616013
469 2 0.976102 0.258705 0.567019
313 1 0.97814 0.315483 0.667347
12 1 0.794601 0.453234 0.684193
109 1 0.887893 0.383571 0.581638
244 1 0.81206 0.287292 0.697648
426 2 0.771311 0.414036 0.568896
45 1 0.911246 0.417411 0.74283
473 2 0.0143318 0.233807 0.752379
453 2 0.117067 0.0216505 0.839705
29 1 0.22167 0.00555639 0.906132
346 1 0.0446335 0.104134 0.896414
284 1 0.178211 0.128106 0.846936
176 1 0.143385 0.21022 0.960581
20 1 0.0482777 0.231454 0.860437
233 1 0.0226483 0.010024 0.782584
435 2 0.447496 0.0334163 0.78142
269 1 0.325235 0.0426778 0.819175
317 1 0.314221 0.127455 0.945691
223 1 0.438107 0.059876 0.897431
110 1 0.389091 0.167811 0.816976
205 1 0.264239 0.247852 0.822091
345 1 0.642877 0.172518 0.99733
7 1 0.506211 0.17703 0.937169
416 2 0.654099 0.0955688 0.902461
24 1 0.569449 0.0790641 0.798478
254 1 0.61769 0.208457 0.840205
151 1 0.711196 0.0928262 0.786602
43 1 0.563332 0.0552227 0.96762
358 1 0.784162 0.0316793 0.89011
439 2 0.866181 0.0508614 0.981096
152 1 0.775634 0.164921 0.936232
400 2 0.834531 0.0762023 0.792633
206 1 0.796274 0.196496 0.807428
124 1 0.929999 0.180598 0.936095
5 1 0.930294 0.1312 0.800246
321 1 0.931583 0.0265725 0.886721
262 1 0.197062 0.464911 0.982483
37 1 0.158448 0.429972 0.779864
36 1 0.146003 0.330451 0.887489
118 1 0.0373235 0.368094 0.788262
299 1 0.0885315 0.473769 0.896495
96 1 0.0169342 0.334779 0.946137
232 1 0.392992 0.419288 0.979471
142 1 0.297272 0.4879 0.760754
323 1 0.266241 0.29157 0.984065
148 1 0.273831 0.393473 0.857497
22 1 0.406263 0.424842 0.792651
331 1 0.376155 0.28996 0.893722
395 2 0.473312 0.315088 0.978611
364 1 0.680244 0.387333 0.996029
282 1 0.53672 0.490549 0.788604
295 1 0.509526 0.418652 0.904688
31 1 0.505908 0.301749 0.831413
15 1 0.590162 0.296818 0.946801
448 2 0.605566 0.484988 0.890718
8 1 0.720834 0.284472 0.895318
302 1 0.623112 0.383081 0.833384
261 1 0.720106 0.481151 0.898075
159 1 0.672129 0.497304 0.756858
312 1 0.941117 0.457502 0.877909
350 1 0.82682 0.37471 0.933061
58 1 0.774953 0.38158 0.805081
68 1 0.906694 0.282647 0.849599
392 2 0.834161 0.256303 0.951323
410 2 0.824858 0.487146 0.974433
11 1 0.171387 0.554858 0.0910751
277 1 0.166199 0.691683 0.202475
125 1 0.0849588 0.705845 0.0492934
225 1 0.0148413 0.727249 0.17292
425 2 0.0862267 0.530994 0.157989
281 1 0.258338 0.672326 0.0939213
296 1 0.290344 0.551164 0.186665
471 2 0.360802 0.606167 0.113783
314 1 0.308792 0.532951 0.0314118
297 1 0.318382 0.694545 0.219992
422 2 0.432968 0.699832 0.222813
67 1 0.43282 0.579712 0.227653
349 1 0.390277 0.734752 0.103845
308 1 0.453975 0.521757 0.0469512
409 2 0.3057 0.748321 0.0150477
336 1 0.501583 0.639003 0.111847
141 1 0.635547 0.706043 0.137055
133 1 0.584421 0.595633 0.21253
78 1 0.744633 0.595151 0.159117
341 1 0.734794 0.544233 0.0324506
459 2 0.636317 0.580985 0.0983824
108 1 0.541572 0.746676 0.0311375
310 1 0.742443 0.705881 0.244152
111 1 0.594654 0.510215 0.00801734
430 2 0.521112 0.612188 0.0015017
337 1 0.97809 0.513996 0.197809
74 1 0.998793 0.598971 0.0848167
16 1 0.785547 0.68543 0.0460391
98 1 0.868483 0.566934 0.0933782
234 1 0.862893 0.695401 0.161549
406 2 0.962012 0.633932 0.209073
382 1 0.859757 0.576259 0.247254
4 1 0.945047 0.726326 0.0363151
375 1 0.124452 0.815183 0.136396
210 1 0.196172 0.925014 0.181445
290 1 0.0673024 0.970557 0.0909875
3 1 0.200337 0.941238 0.0334928
178 1 0.0863363 0.996275 0.230181
47 1 0.189689 0.793334 0.0160796
215 1 0.31419 0.974111 0.126705
160 1 0.265937 0.800439 0.141575
14 1 0.396322 0.875293 0.178201
436 2 0.411968 0.935121 0.0662541
63 1 0.327902 0.862377 0.0355374
419 2 0.538354 0.990207 0.0724877
6 1 0.515956 0.773627 0.169371
188 1 0.683062 0.783857 0.00126604
212 1 0.603711 0.95315 0.160636
351 1 0.516962 0.876106 0.0842069
461 2 0.656545 0.853544 0.09514
173 1 0.731223 0.93641 0.0902055
357 1 0.645515 0.813253 0.213528
451 2 0.510223 0.890747 0.208146
128 1 0.726564 0.931469 0.233798
239 1 0.7592 0.786919 0.134786
194 1 0.827452 0.845457 0.0282594
286 1 0.99301 0.862472 0.136171
458 2 0.958264 0.90103 0.233665
353 1 0.84676 0.894013 0.154645
454 2 0.898814 0.804338 0.112403
372 1 0.904547 0.798245 0.238496
240 1 0.923127 0.95096 0.0287024
431 2 0.78971 0.813059 0.246512
138 1 0.0630633 0.601623 0.278036
114 1 0.0470956 0.626408 0.43311
86 1 0.193514 0.680346 0.43248
360 1 0.238139 0.600772 0.310305
87 1 0.158532 0.522561 0.403249
389 2 0.216054 0.718078 0.309394
170 1 0.105834 0.729884 0.338177
116 1 0.163785 0.500985 0.250497
427 2 0.036785 0.510226 0.420382
123 1 0.305245 0.531111 0.414823
130 1 0.448854 0.505947 0.49733
438 2 0.343394 0.592409 0.293142
207 1 0.339523 0.684664 0.367559
289 1 0.452809 0.564885 0.364933
120 1 0.471992 0.700953 0.333894
165 1 0.497572 0.649593 0.469083
208 1 0.720528 0.555764 0.464588
342 1 0.592866 0.593887 0.385494
236 1 0.599472 0.710897 0.283831
82 1 0.691212 0.686465 0.376417
274 1 0.7191 0.569569 0.29474
398 2 0.818261 0.517841 0.367294
440 2 0.860083 0.592572 0.485096
403 2 0.845808 0.690431 0.286982
140 1 0.934148 0.71386 0.454887
200 1 0.956217 0.675512 0.318799
126 1 0.926158 0.540381 0.385578
149 1 0.825541 0.630682 0.39196
253 1 0.0614867 0.846585 0.256384
444 2 0.0549216 0.7611 0.434458
467 2 0.0383864 0.966521 0.444467
38 1 0.200016 0.825313 0.281052
294 1 0.0954262 0.867129 0.387321
397 2 0.152675 0.930081 0.293487
105 1 0.227609 0.938574 0.395537
347 1 0.000783812 0.859696 0.492437
242 1 0.271811 0.80138 0.408657
94 1 0.310831 0.929633 0.274602
369 1 0.425526 0.781474 0.440925
198 1 0.445805 0.955124 0.301019
30 1 0.368854 0.798877 0.297092
373 1 0.371599 0.902795 0.403282
326 1 0.708681 0.811357 0.479057
377 1 0.504521 0.911214 0.428632
48 1 0.643082 0.930431 0.453899
325 1 0.505715 0.82905 0.307486
34 1 0.697363 0.841592 0.344111
252 1 0.577062 0.777631 0.415632
285 1 0.598323 0.936585 0.302886
189 1 0.953905 0.816265 0.366428
168 1 0.89818 0.959351 0.433938
112 1 0.816104 0.770166 0.368915
50 1 0.989531 0.957902 0.32822
434 2 0.796673 0.882123 0.405774
352 1 0.85328 0.909576 0.306165
28 1 0.856911 0.836798 0.494482
315 1 0.752702 0.98644 0.361501
93 1 0.171631 0.697931 0.598258
344 1 0.0728212 0.593302 0.637058
2 1 0.207936 0.565397 0.685128
441 2 0.0804094 0.727542 0.671349
263 1 0.0415793 0.719138 0.540619
339 1 0.226934 0.567729 0.523365
404 2 0.125434 0.621959 0.534627
355 1 0.317929 0.688557 0.647768
76 1 0.464546 0.615533 0.606725
13 1 0.338095 0.551241 0.635888
301 1 0.446929 0.71117 0.712566
407 2 0.33584 0.502475 0.523115
187 1 0.358534 0.625895 0.507182
155 1 0.578237 0.592107 0.68843
192 1 0.578619 0.72052 0.636522
44 1 0.704943 0.641692 0.63583
17 1 0.586307 0.551371 0.528526
113 1 0.63712 0.69017 0.510227
446 2 0.797331 0.579718 0.699844
327 1 0.914971 0.562934 0.696892
75 1 0.925176 0.653317 0.576842
59 1 0.840847 0.68868 0.69587
181 1 0.830113 0.54612 0.587672
366 1 0.98853 0.671173 0.729157
199 1 0.79361 0.690347 0.521435
217 1 0.971189 0.525816 0.528538
220 1 0.065527 0.997413 0.650825
368 1 0.187436 0.788893 0.711861
379 1 0.0828235 0.829 0.619705
121 1 0.190607 0.924244 0.639582
387 2 0.212387 0.811085 0.601334
195 1 0.133257 0.949312 0.511823
1 1 0.147206 0.802479 0.501172
164 1 0.311044 0.989837 0.63681
432 2 0.373166 0.834985 0.529059
55 1 0.442484 0.756435 0.582911
92 1 0.322138 0.847606 0.634521
249 1 0.442831 0.902658 0.584424
394 2 0.435179 0.820548 0.673277
83 1 0.40027 0.925654 0.720865
129 1 0.27336 0.893069 0.523169
41 1 0.361108 0.999026 0.509872
338 1 0.289227 0.751302 0.531634
433 2 0.676785 0.764702 0.588004
380 1 0.646074 0.992227 0.724376
33 1 0.691716 0.753068 0.716031
457 2 0.55335 0.936674 0.596518
42 1 0.535114 0.859347 0.686337
258 1 0.573099 0.831998 0.546692
307 1 0.668538 0.873167 0.639658
412 2 0.99986 0.907408 0.60188
255 1 0.975446 0.892281 0.718319
363 1 0.937721 0.803183 0.615136
177 1 0.884083 0.930038 0.591883
298 1 0.792405 0.79267 0.621498
402 2 0.859659 0.873533 0.697562
139 1 0.763797 0.934359 0.515521
9 1 0.770624 0.991496 0.668858
354 1 0.131307 0.595785 0.971466
376 1 0.135043 0.651917 0.762952
79 1 0.20082 0.536584 0.849778
122 1 0.129723 0.716546 0.902208
231 1 0.0236899 0.614661 0.862774
423 2 0.0152651 0.6408 0.976887
464 2 0.205537 0.743859 0.817237
209 1 0.0487783 0.516455 0.766623
437 2 0.00257876 0.522532 0.959903
127 1 0.33699 0.533073 0.893417
384 1 0.251197 0.647895 0.931399
167 1 0.281902 0.629458 0.780825
32 1 0.409936 0.573514 0.765202
154 1 0.382591 0.679565 0.857387
193 1 0.49855 0.551538 0.909728
319 1 0.388667 0.647578 0.98956
132 1 0.641904 0.650148 0.984631
388 2 0.509666 0.628463 0.798581
291 1 0.617049 0.600454 0.856513
102 1 0.523488 0.69251 0.910382
238 1 0.566179 0.728083 0.778055
340 1 0.724433 0.625826 0.776851
156 1 0.686335 0.73782 0.866166
90 1 0.769502 0.619242 0.91887
362 1 0.882924 0.65226 0.834814
186 1 0.903784 0.586736 0.951281
385 2 0.949015 0.543246 0.804746
137 1 0.985766 0.742475 0.894833
474 2 0.787735 0.737216 0.797733
101 1 0.832063 0.519917 0.816242
163 1 0.0311097 0.835373 0.995625
196 1 0.11467 0.913142 0.755613
10 1 0.0623219 0.783933 0.773632
257 1 0.0826976 0.954226 0.948026
99 1 0.167148 0.867765 0.876716
150 1 0.340236 0.99229 0.973113
361 1 0.287141 0.788501 0.894991
18 1 0.471468 0.93029 0.96418
104 1 0.322862 0.782995 0.76049
417 2 0.275071 0.89795 0.933584
203 1 0.256506 0.907198 0.778074
95 1 0.430357 0.793842 0.956863
343 1 0.377418 0.908121 0.871532
276 1 0.458883 0.807913 0.820445
222 1 0.625652 0.922071 0.994168
470 2 0.744425 0.984788 0.785657
329 1 0.51707 0.933433 0.80662
211 1 0.732695 0.877609 0.90657
77 1 0.635214 0.856241 0.790344
224 1 0.561185 0.830517 0.905001
316 1 0.652825 0.98761 0.862224
73 1 0.993911 0.891728 0.859152
51 1 0.870751 0.969032 0.780252
330 1 0.901733 0.793486 0.775044
273 1 0.864141 0.908705 0.902249
393 2 0.790989 0.958704 0.977578
251 1 0.816703 0.768286 0.914339
420 2 0.917085 0.810872 0.955612
27 1 0.775467 0.863782 0.778877
ITEM: TIMESTEP
3000000
ITEM: NUMBER OF ATOMS
480
ITEM: BOX BOUNDS pp pp pp
0.0000000000000000e+00 7.3680629972807701e+00
0.0000000000000000e+00 7.3680629972807701e+00
0.0000000000000000e+00 7.3680629972807701e+00
ITEM: ATOMS id type xs ys zs
175 1 0.105793 0.156202 0.0839259
383 1 0.110514 0.0640134 0.194927
71 1 0.102078 0.200454 0.214104
3 1 0.103582 0.0241639 0.0410266
72 1 0.229183 0.0763824 0.108332
89 1 0.235362 0.223592 0.140481
471 2 0.0278716 0.0791577 0.109104
476 2 0.919968 0.0262767 0.19476
115 1 0.560558 0.0429976 0.0236636
214 1 0.334817 0.109547 0.193066
161 1 0.452556 0.0548318 0.119154
405 2 0.412754 0.164956 0.123412
52 1 0.486943 0.143923 0.226817
364 1 0.483936 0.17006 0.0350955
110 1 0.342246 0.0983401 0.0187929
35 1 0.894912 0.280966 0.415908
365 1 0.533003 0.466923 0.513408
356 1 0.591957 0.130864 0.121642
459 2 0.665911 0.221618 0.108513
359 1 0.715564 0.119265 0.195032
68 1 0.718504 0.121072 0.0492945
185 1 0.606974 0.0361289 0.23354
54 1 0.97043 0.00526222 0.301072
184 1 0.625364 0.219792 0.243531
206 1 0.973859 0.216645 0.0922894
268 1 0.97628 0.122195 0.223123
106 1 0.920417 0.0758911 0.0845347
40 1 0.839701 0.168276 0.149737
162 1 0.806789 0.0214763 0.148741
395 2 0.765706 0.390664 0.281013
442 2 0.920835 0.247007 0.19974
177 1 0.315585 0.0531496 0.480464
317 1 0.109029 0.297585 0.106897
13 1 0.17322 0.44272 0.130353
440 2 0.0497563 0.399118 0.114216
205 1 0.227362 0.315958 0.0282521
183 1 0.0680781 0.443199 0.229588
466 2 0.477275 0.467864 0.129069
474 2 0.492594 0.000270608 0.215124
69 1 0.356606 0.25141 0.0579231
117 1 0.38837 0.266498 0.208524
61 1 0.296641 0.460545 0.0449684
323 1 0.288035 0.345791 0.168
241 1 0.413446 0.375682 0.100245
98 1 0.800531 0.39223 0.00803463
179 1 0.580065 0.257549 0.0322599
232 1 0.509701 0.26896 0.146976
6 1 0.680656 0.458556 0.0655973
422 2 0.668902 0.453451 0.199291
274 1 0.545935 0.421697 0.213634
250 1 0.64163 0.337794 0.13099
331 1 0.543318 0.400522 0.0482404
21 1 0.756859 0.276322 0.207759
348 1 0.754404 0.260134 0.0446393
65 1 0.00118634 0.327373 0.187842
70 1 0.774621 0.411477 0.16058
111 1 0.867956 0.304142 0.114576
204 1 0.920695 0.436668 0.133719
59 1 0.987049 0.351825 0.0279314
53 1 0.214087 0.0978301 0.268761
477 2 0.269549 0.0106753 0.383463
468 2 0.13348 0.228664 0.474225
100 1 0.19706 0.121867 0.418708
260 1 0.0799694 0.112979 0.323039
169 1 0.0489859 0.155801 0.444775
23 1 0.128053 0.242663 0.345603
66 1 0.0507644 -0.0030899 0.441209
210 1 0.381163 -0.012525 0.248389
136 1 0.3467 0.200454 0.496335
318 1 0.451593 0.163863 0.393461
278 1 0.344714 0.0932348 0.3411
319 1 0.491083 0.0282064 0.333854
398 2 0.296867 0.190725 0.377313
427 2 0.394587 0.182581 0.295606
416 2 0.427453 0.0507685 0.433163
226 1 0.854933 0.446676 0.351575
182 1 0.552154 0.0516975 0.46125
413 2 0.659665 0.100501 0.429642
166 1 0.714733 0.20018 0.451304
259 1 0.584913 0.130907 0.343529
305 1 0.734949 0.137675 0.327225
264 1 -0.0100473 0.226508 0.311339
334 1 0.859705 0.212606 0.287455
283 1 0.760715 0.0319831 0.451775
419 2 0.962087 0.119131 0.351123
287 1 0.846278 0.0751576 0.274392
27 1 0.856985 0.150126 0.412139
62 1 0.560637 0.190906 0.491586
429 2 0.384854 0.311818 0.480432
97 1 0.160812 0.332768 0.241078
107 1 0.755099 0.286747 0.342595
157 1 0.12111 0.412721 -0.000462932
153 1 0.0347778 0.296098 0.457311
248 1 0.143668 0.386666 0.379022
279 1 0.239372 0.277109 0.424307
124 1 -0.0142121 0.368811 0.333488
256 1 0.274101 0.230061 0.278853
280 1 0.282059 0.390654 0.471673
333 1 0.195877 0.47869 0.28884
49 1 0.412431 0.400732 0.266591
320 1 0.405031 0.433666 0.400096
191 1 0.275392 0.368103 0.326581
130 1 0.381315 0.28285 0.363626
25 1 0.488542 0.326016 0.443909
408 2 0.756512 0.30572 0.463986
88 1 0.506425 0.281327 0.297099
449 2 0.599738 0.38737 0.452821
227 1 0.652365 0.359102 0.275974
230 1 0.545808 0.430966 0.366353
146 1 0.71071 0.397465 0.404536
378 1 0.613974 0.275507 0.390681
221 1 0.880961 0.356643 0.250746
397 2 0.952461 0.460057 0.265117
460 2 0.963826 0.401556 0.438757
297 1 0.326323 0.490869 0.180203
257 1 0.235019 0.178613 -0.00151617
216 1 0.837588 0.396729 0.499829
237 1 0.0488547 0.450671 0.490606
8 1 0.847934 0.172158 -0.0118568
322 1 0.914862 0.0501449 0.496175
275 1 0.0679114 0.158545 0.716676
418 2 0.142959 0.138085 0.630819
293 1 0.0754967 0.227758 0.575532
270 1 0.0203541 0.094404 0.585969
233 1 0.221319 0.19959 0.556458
218 1 0.113577 0.0249665 0.671501
255 1 0.139309 0.0485207 0.535411
267 1 0.171527 0.255411 0.681923
37 1 0.198404 0.119578 0.758384
164 1 0.240724 0.0853296 0.627966
284 1 0.379774 0.105206 0.606274
332 1 0.316103 0.198361 0.703806
223 1 0.473687 0.197004 0.718681
220 1 0.447953 0.239278 0.586011
394 2 0.446512 0.0855577 0.702078
64 1 0.45666 0.305577 0.974229
450 2 0.448758 0.13382 0.512046
272 1 0.521611 0.113332 0.603628
213 1 0.559031 0.0949447 0.744519
235 1 0.665804 0.103415 0.542971
465 2 0.705438 0.206608 0.5782
265 1 0.609273 0.217801 0.63776
139 1 0.745859 0.0217175 0.769178
203 1 0.115675 -0.0100256 0.817899
24 1 0.709736 0.133911 0.679204
346 1 0.961429 0.0625674 0.708532
446 2 0.839879 0.218256 0.705211
309 1 0.842155 0.132212 0.624444
300 1 0.764837 0.0200976 0.590591
448 2 0.836133 0.0329552 0.693667
382 1 0.816417 0.260808 0.553747
472 2 0.792983 0.127657 0.518743
85 1 0.931335 0.191981 0.525434
247 1 0.958535 0.219996 0.658038
74 1 0.0625158 0.479817 0.702115
45 1 0.0677497 0.364857 0.623996
441 2 0.0482722 0.277538 0.693187
142 1 0.207804 0.391847 0.654605
57 1 0.147886 0.333727 0.519508
84 1 0.180261 0.459381 0.545637
445 2 0.282919 0.480982 0.603766
246 1 0.40839 0.327667 0.69035
17 1 0.387587 0.425864 0.562489
479 2 0.493755 0.413301 0.684794
288 1 0.304047 0.308163 0.58216
148 1 0.355824 0.466283 0.699682
12 1 0.658123 0.307873 0.520574
370 1 0.527643 0.345735 0.591748
144 1 0.59736 0.454358 0.656165
91 1 0.680473 0.45293 0.539051
119 1 0.730943 0.279185 0.671332
392 2 0.63483 0.344488 0.637042
350 1 0.726648 0.414315 0.690628
7 1 0.544665 0.331017 0.739658
103 1 0.853191 0.427017 0.756548
410 2 0.750539 0.359437 0.585163
381 1 0.871632 0.329009 0.661335
374 1 0.948307 0.329077 0.551175
116 1 0.931278 0.451678 0.631389
229 1 0.644935 0.507972 0.926952
135 1 0.976026 0.359251 0.738278
439 2 0.0579834 0.0220673 0.923439
150 1 0.142538 0.108217 0.917298
269 1 0.185947 0.242663 0.829521
151 1 0.0277427 0.0958254 0.838907
5 1 0.0084082 0.117339 0.97693
313 1 0.0390044 0.24648 0.812077
96 1 0.0984203 0.240488 0.963548
454 2 0.617863 0.145736 0.998274
202 1 0.907275 0.37943 0.893241
243 1 0.237943 0.00355126 0.980804
414 2 0.222698 0.0196923 0.845817
324 1 0.32739 0.0554903 0.758116
329 1 0.464167 0.013477 0.803493
254 1 0.281344 0.127017 0.873192
152 1 0.40346 0.162367 0.826775
18 1 0.461262 0.0744536 0.931724
415 2 0.405969 0.180418 0.958328
426 2 0.311387 0.221995 0.81387
58 1 0.796386 0.288878 0.908082
316 1 0.613114 0.212823 0.786786
304 1 0.602307 0.094689 0.89543
244 1 0.668825 0.220595 0.92746
451 2 0.667913 0.105497 0.805488
131 1 0.852671 0.110876 0.778649
302 1 0.762427 0.428329 0.865316
26 1 0.754272 0.21011 0.799701
43 1 0.758863 0.1081 0.893063
444 2 0.955444 0.173304 0.764125
118 1 0.951058 0.246803 0.925941
9 1 0.906116 0.0684639 0.904092
478 2 0.856039 0.175773 0.876362
393 2 0.578172 0.0185 0.574627
20 1 0.88646 0.270539 0.797008
147 1 0.117176 0.373702 0.78187
172 1 0.204855 0.371046 0.89538
125 1 0.0461973 0.357629 0.894882
457 2 0.124213 0.451894 0.875324
134 1 0.00537581 0.479678 0.847546
36 1 0.250785 0.465635 0.797496
261 1 0.814379 0.506195 0.588329
314 1 0.429105 0.461121 0.984252
262 1 0.290693 0.326994 0.780685
176 1 0.327641 0.257486 0.921539
271 1 0.430386 0.299765 0.826025
31 1 0.345689 0.395723 0.889563
306 1 0.463226 0.44312 0.792657
345 1 0.515722 0.206673 0.895627
308 1 0.536999 0.371068 0.880055
158 1 0.666558 0.362204 0.946624
201 1 0.675563 0.329661 0.804541
159 1 0.618627 0.44895 0.802123
406 2 0.783396 0.32289 0.773071
425 2 0.345251 0.355215 1.00457
194 1 0.813345 0.0276827 1.00562
299 1 0.227969 0.515909 0.938068
186 1 0.961228 0.489264 0.983374
456 2 0.891225 0.312774 0.994912
132 1 0.121454 0.650563 0.0631387
190 1 0.131318 0.559479 0.191884
86 1 0.0880744 0.71013 0.241672
296 1 0.211125 0.681429 0.183531
453 2 0.0315658 0.621241 0.136587
469 2 0.153846 0.526302 0.0435643
253 1 0.0437598 0.516969 0.0913267
170 1 0.248083 0.729943 0.0552389
420 2 0.241282 0.572934 0.216117
123 1 0.247889 0.579002 0.0955337
171 1 0.34847 0.634355 0.198387
198 1 0.380093 0.692491 0.0713425
292 1 0.407421 0.5506 0.0891116
219 1 0.469792 0.53513 0.231406
417 2 0.307791 0.732817 0.153479
336 1 0.498923 0.66515 0.170169
108 1 0.703704 0.594416 0.0175093
188 1 0.628654 0.679845 0.0892632
143 1 0.742362 0.566037 0.164492
78 1 0.598063 0.546703 0.148516
240 1 0.693816 0.990063 0.0865195
224 1 0.506224 0.67462 0.0269492
325 1 0.539825 0.541491 0.0208364
189 1 0.880228 0.785281 0.483114
200 1 0.00371191 0.729524 0.121574
137 1 0.768359 0.69142 0.111439
4 1 0.902994 0.634287 0.142979
312 1 0.841033 0.530542 0.0462415
133 1 0.859775 0.52328 0.235878
47 1 0.142126 0.799752 0.116071
138 1 0.16152 0.935627 0.161058
401 2 0.102452 0.910004 0.0577296
424 2 0.0715552 0.950641 0.254341
215 1 0.230309 0.869467 0.0237272
29 1 0.0120437 0.960311 0.145983
50 1 0.0318716 0.837589 0.20893
461 2 0.480945 0.75677 0.106218
67 1 0.419761 0.767451 0.209169
11 1 0.265688 0.841072 0.164574
38 1 0.358069 0.835525 0.0432745
351 1 0.432622 0.897909 0.142923
178 1 0.314985 0.964495 0.0996179
252 1 0.634368 0.523491 0.431014
409 2 0.370379 0.873363 0.239303
404 2 0.658786 0.913992 0.181819
212 1 0.503936 0.842348 0.032509
239 1 0.695696 0.777164 0.193563
30 1 0.55318 0.799655 0.178632
173 1 0.655633 0.839519 0.0774606
60 1 0.560444 0.942428 0.126621
197 1 0.304601 0.520407 0.475285
128 1 0.769997 0.884866 0.149566
2 1 0.920444 0.510434 0.489151
149 1 0.784754 0.525241 0.447568
160 1 0.0050864 0.84394 0.0431295
388 2 0.769448 0.804338 0.0718603
286 1 0.869034 0.785013 0.166001
156 1 0.884341 0.913941 0.0772613
353 1 0.893463 0.912014 0.214813
122 1 0.872719 0.767263 0.0224301
180 1 0.157965 0.534835 0.414388
187 1 0.182619 0.623285 0.303754
1 1 0.0471303 0.641258 0.355083
473 2 0.0429927 0.571488 0.454151
421 2 0.0922392 0.540981 0.302443
93 1 0.116935 0.671948 0.47962
281 1 0.149316 0.761189 0.380852
101 1 0.985905 0.627168 0.0262174
377 1 0.257056 0.661423 0.411823
289 1 0.387317 0.634285 0.474559
120 1 0.327444 0.54836 0.331912
285 1 0.419977 0.676155 0.321336
428 2 0.353287 0.731667 0.412845
165 1 0.47388 0.563819 0.394358
55 1 0.466055 0.748277 0.442735
207 1 0.28003 0.752287 0.283505
342 1 0.598508 0.536384 0.289846
447 2 0.520244 0.630932 0.285138
310 1 0.634681 0.656331 0.233505
249 1 0.587144 0.659975 0.404166
82 1 0.724138 0.634006 0.380309
80 1 0.852719 0.972023 0.367102
114 1 0.998425 0.572005 0.237389
277 1 0.795644 0.661228 0.251683
263 1 0.946021 0.71298 0.257768
234 1 0.886853 0.589336 0.354111
458 2 0.942893 0.696581 0.378523
360 1 0.965265 0.651297 0.482465
225 1 0.837876 0.728834 0.371874
328 1 0.151043 0.989429 0.343649
76 1 0.161135 0.835536 0.260532
389 2 0.0343803 0.761567 0.341088
339 1 0.0274921 0.780686 0.459306
168 1 0.0599827 0.875029 0.35833
386 2 0.177997 0.876871 0.371984
242 1 0.216604 0.960236 0.465151
94 1 0.371685 0.956999 0.387345
294 1 0.276503 0.832206 0.431357
335 1 0.272446 0.907524 0.295406
369 1 0.395607 0.813221 0.338862
373 1 0.499673 0.913809 0.414719
14 1 0.488808 0.896759 0.270815
455 2 0.430136 0.530829 0.506962
347 1 0.934829 0.909208 0.457324
463 2 0.256829 1.00642 0.196882
315 1 0.755273 0.967498 0.269299
266 1 0.614112 0.878407 0.306114
141 1 0.53312 0.752938 0.314312
34 1 0.738987 0.75717 0.480621
236 1 0.602103 0.814189 0.448698
46 1 0.726521 0.883183 0.402445
372 1 0.680505 0.75372 0.334466
357 1 0.799818 0.832043 0.27758
396 2 0.841445 0.852846 0.402784
352 1 0.937773 0.830721 0.331005
371 1 0.651995 1.00255 0.364721
245 1 0.426418 0.95862 0.0134018
16 1 0.731944 0.508148 0.294311
217 1 0.000373157 0.505802 0.364986
433 2 0.606881 0.920451 0.0174535
273 1 0.983523 0.9744 -0.00781876
464 2 0.599198 0.768019 0.000264374
380 1 0.401587 0.859288 0.503013
434 2 0.207084 0.748638 0.49356
402 2 0.122546 0.632745 0.634324
129 1 0.0347227 0.704837 0.594688
344 1 0.0620599 0.56055 0.570792
79 1 0.0308658 0.627689 0.733704
301 1 0.174359 0.668035 0.742913
361 1 0.187051 0.534725 0.681178
155 1 0.20285 0.610545 0.557071
338 1 0.186751 0.749518 0.611989
51 1 0.876789 0.947797 0.775893
423 2 0.245831 0.644514 0.654739
282 1 0.445863 0.695678 0.622819
376 1 0.300273 0.592793 0.742068
81 1 0.346055 0.588811 0.60536
15 1 0.477398 0.530965 0.635042
154 1 0.304883 0.715311 0.556972
167 1 0.314988 0.731432 0.696234
127 1 0.433384 0.605762 0.767749
228 1 0.656004 0.949421 0.505254
211 1 0.763987 0.886047 0.994583
192 1 0.575441 0.636613 0.657564
366 1 0.6965 0.567504 0.644208
28 1 0.68656 0.727846 0.695424
435 2 0.746854 0.693975 0.578155
475 2 0.591757 0.537268 0.576175
258 1 0.607585 0.735603 0.55859
411 2 0.541343 0.528178 0.754752
208 1 0.520538 0.61978 0.519003
87 1 0.927652 0.596077 0.608754
39 1 0.821822 0.650337 0.668992
403 2 0.915974 0.710967 0.594866
75 1 0.93089 0.73557 0.709422
19 1 0.911929 0.549073 0.739849
140 1 0.833404 0.647233 0.509596
196 1 0.0629865 0.77682 0.714834
467 2 0.0632208 0.818013 0.587781
368 1 0.1491 0.882274 0.645964
73 1 0.0441175 0.943198 0.566164
452 2 0.217493 0.968515 0.594433
10 1 0.00815572 0.9087 0.704161
95 1 0.226405 0.964393 0.721776
276 1 0.722924 0.73822 0.995187
105 1 0.272685 0.864061 0.571066
407 2 0.498318 0.782363 0.562338
432 2 0.272741 0.86051 0.685092
42 1 0.411174 0.839032 0.64858
41 1 0.337479 0.97439 0.642378
121 1 0.485187 0.979205 0.672313
303 1 0.350837 0.995555 0.888557
326 1 0.412964 0.76012 0.785833
32 1 0.539951 0.787893 0.673595
391 2 0.572148 0.896649 0.680705
48 1 0.540126 0.893865 0.573513
379 1 0.676914 0.846515 0.60685
367 1 0.641774 0.984869 0.661511
112 1 0.654405 0.846936 0.757711
195 1 0.948787 0.842035 0.585065
56 1 0.777824 0.915004 0.680017