ITEM: TIMESTEP
0
ITEM: NUMBER OF ATOMS
480
ITEM: BOX BOUNDS pp pp pp
0.0000000000000000e+00 7.3680629972807701e+00
0.0000000000000000e+00 7.3680629972807701e+00
0.0000000000000000e+00 7.3680629972807701e+00
ITEM: ATOMS id type xs ys zs
348 1 0.0544302 0.147465 0.158699
79 1 0.187569 0.161611 0.192311
282 1 0.0585748 0.0322517 0.0739156
422 2 0.174418 0.0135215 0.0904084
2 1 0.136733 0.120906 0.0420347
332 1 0.132232 0.0565759 0.239178
8 1 0.252638 0.192243 0.0662471
207 1 0.396522 0.132635 0.0452269
16 1 0.279461 0.0420608 0.0101946
33 1 0.318493 0.20104 0.192495
62 1 0.270893 0.0621677 0.147633
80 1 0.481499 0.0635432 0.113097
31 1 0.460557 0.197586 0.179534
63 1 0.609292 0.179779 0.164295
67 1 0.67868 0.0596342 0.238413
255 1 0.5084 0.197351 0.0518525
64 1 0.653554 0.0577595 0.0738193
480 2 0.683006 0.164749 0.0738538
87 1 0.74608 0.168981 0.185579
83 1 0.548342 0.0618663 0.243705
38 1 0.887889 0.245853 0.0446926
52 1 0.979683 0.145516 0.0472173
3 1 0.821626 0.129735 0.060974
68 1 0.886501 0.189961 0.166025
108 1 0.933912 0.0607772 0.142881
286 1 0.916705 0.00891157 0.0241498
20 1 0.751756 0.247721 0.0129704
19 1 0.787169 0.026486 0.144905
56 1 0.106681 0.252028 0.0936318
23 1 0.0773898 0.400424 0.0991462
76 1 0.183633 0.346495 0.0378359
51 1 0.129972 0.260735 0.244625
73 1 0.17216 0.403522 0.194443
22 1 0.134678 0.49802 0.0142905
78 1 0.237841 0.486644 0.102088
77 1 0.311576 0.435106 0.220756
75 1 0.250526 0.305833 0.175639
12 1 0.376891 0.254138 0.0778466
95 1 0.361976 0.387717 0.107309
82 1 0.406171 0.318562 0.238317
44 1 0.474001 0.459152 0.203753
257 1 0.449051 0.349949 0.0033904
458 2 0.632166 0.404923 0.0731115
32 1 0.506626 0.461361 0.0546059
220 1 0.649089 0.291046 0.10571
35 1 0.512099 0.330012 0.129506
256 1 0.615675 0.439612 0.188982
114 1 0.604649 0.306309 0.224774
36 1 0.723867 0.458547 0.118753
123 1 0.740268 0.382902 0.241383
235 1 0.716766 0.375117 0.00742596
72 1 0.983988 0.285225 0.126521
39 1 0.909687 0.32269 0.23952
228 1 0.985308 0.466852 0.0358967
40 1 0.885813 0.382304 0.0892825
97 1 0.800484 0.298601 0.138998
50 1 0.956458 0.427895 0.176309
479 2 0.840191 0.397174 0.185916
449 2 0.15782 0.233566 0.435873
101 1 0.00422892 0.0668616 0.272203
111 1 0.214317 0.190034 0.33814
102 1 0.10065 0.103992 0.387292
334 1 0.246497 0.0630726 0.416391
393 2 0.134137 0.000953395 0.471625
137 1 0.0687306 0.24919 0.372631
448 2 0.165502 0.0268563 0.34329
140 1 0.486084 0.0506295 0.483519
403 2 0.331439 0.155274 0.417034
55 1 0.292078 0.0851323 0.290858
81 1 0.390512 0.190931 0.307035
106 1 0.397265 0.0549193 0.376881
139 1 0.462759 0.189441 0.427823
333 1 0.357147 0.00934929 0.496017
142 1 0.678113 0.0669506 0.477526
85 1 0.567558 0.0913347 0.374022
86 1 0.535714 0.227309 0.316156
116 1 0.637492 0.223055 0.440446
70 1 0.669494 0.191873 0.288051
473 2 0.733442 0.210347 0.380591
88 1 0.8645 0.111841 0.270453
84 1 0.806079 0.248795 0.27692
125 1 0.966734 0.114279 0.417144
343 1 0.757248 0.0818194 0.346196
90 1 0.848339 0.175088 0.401883
89 1 0.9786 0.199209 0.290022
119 1 0.905828 0.0088316 0.363685
199 1 0.756135 0.207604 0.499497
424 2 0.966275 0.202331 0.495461
100 1 0.107992 0.476722 0.312473
365 1 0.0402556 0.431805 0.416301
401 2 0.20721 0.420963 0.292652
428 2 0.0747001 0.333239 0.472484
310 1 0.0255736 0.360469 0.266401
92 1 0.161084 0.356626 0.36982
178 1 0.159921 0.444683 0.474213
222 1 0.189867 0.315798 0.498963
180 1 0.435257 0.426497 0.467142
404 2 0.25911 0.372407 0.427042
115 1 0.287477 0.254948 0.426877
112 1 0.287089 0.34378 0.313976
146 1 0.411798 0.302632 0.389454
121 1 0.38354 0.439131 0.333291
191 1 0.251729 0.487486 0.375474
415 2 0.415378 0.313215 0.498477
354 1 0.673861 0.369917 0.495241
46 1 0.508868 0.363894 0.326357
353 1 0.724393 0.468071 0.344638
124 1 0.539441 0.310264 0.475318
148 1 0.563848 0.457715 0.4253
143 1 0.650846 0.354234 0.34149
99 1 0.964231 0.475939 0.312867
307 1 0.873115 0.419056 0.45453
71 1 0.945117 0.321313 0.378316
24 1 0.796931 0.29341 0.405982
260 1 0.838146 0.401214 0.319252
136 1 0.0782695 0.169002 0.651806
134 1 0.0598995 0.0754606 0.517685
206 1 0.176426 0.123768 0.744114
243 1 0.243241 0.228955 0.667136
171 1 0.00994901 0.0378101 0.649375
129 1 0.226003 0.0432001 0.547686
418 2 0.121221 0.0546331 0.653673
221 1 0.0223088 0.245148 0.746471
54 1 0.0778969 0.22383 0.514953
58 1 0.202402 0.167171 0.522775
312 1 0.284322 0.102043 0.658089
130 1 0.443521 0.090038 0.622114
176 1 0.381715 0.214491 0.690093
181 1 0.4719 0.237646 0.568367
138 1 0.331636 0.141392 0.530999
141 1 0.550101 0.191531 0.693852
298 1 0.670236 0.13555 0.631239
184 1 0.566116 0.142076 0.541714
164 1 0.680324 0.226827 0.714427
443 2 0.66496 0.0428453 0.709953
213 1 0.534537 0.061994 0.719852
107 1 0.597351 0.0290564 0.590097
407 2 0.954621 0.136878 0.683958
110 1 0.921483 0.124071 0.55779
145 1 0.832317 0.204705 0.632108
149 1 0.80924 0.0525357 0.516592
144 1 0.968827 0.240638 0.612734
202 1 0.773087 0.103649 0.717888
412 2 0.158561 0.461215 0.59788
392 2 0.0911704 0.28402 0.620952
193 1 0.0293596 0.368439 0.707544
150 1 0.0796609 0.384333 0.573226
242 1 0.20692 0.357675 0.633995
26 1 0.134717 0.464818 0.706827
378 1 0.38476 0.481517 0.6051
175 1 0.314622 0.293533 0.549284
182 1 0.333708 0.375584 0.734087
147 1 0.284906 0.427248 0.524709
231 1 0.405293 0.347362 0.625278
246 1 0.451201 0.442646 0.720544
453 2 0.493722 0.423998 0.567378
455 2 0.470283 0.299396 0.713998
172 1 0.264107 0.47518 0.661663
379 1 0.602831 0.462475 0.558125
133 1 0.647145 0.253432 0.563825
186 1 0.675042 0.378832 0.707048
408 2 0.691224 0.486349 0.670934
233 1 0.539348 0.343089 0.634587
352 1 0.568432 0.475882 0.68988
188 1 0.869089 0.271899 0.520259
120 1 0.971509 0.346593 0.518001
200 1 0.792824 0.45172 0.683817
187 1 0.752566 0.329644 0.599612
356 1 0.902638 0.336659 0.661917
355 1 0.766024 0.466627 0.545364
390 2 0.995532 0.475667 0.539421
402 2 0.913417 0.454883 0.687836
190 1 0.788705 0.318292 0.747828
382 1 0.894608 0.493264 0.584764
25 1 0.0296019 0.0549962 0.945607
27 1 0.180859 0.228259 0.942056
158 1 0.0868658 0.161271 0.876106
177 1 0.116617 0.0347218 0.833934
227 1 0.0373428 0.241094 0.973479
10 1 0.234238 0.119041 0.917746
189 1 0.022654 0.105936 0.764521
245 1 0.306924 0.170677 0.797608
210 1 0.447647 0.190242 0.81048
438 2 0.255151 0.0651878 0.797443
179 1 0.398189 0.0662642 0.753536
216 1 0.382811 0.108761 0.900914
236 1 0.32617 0.223888 0.951646
214 1 0.487203 0.236963 0.929306
211 1 0.528092 0.082959 0.850791
37 1 0.615063 0.196939 0.951976
160 1 0.656806 0.119127 0.806067
446 2 0.628833 0.0768685 0.915615
18 1 0.720081 0.246462 0.848932
218 1 0.736338 0.120828 0.95205
237 1 0.581819 0.244078 0.812341
15 1 0.518284 0.07232 0.986665
1 1 0.87387 0.0723788 0.917183
154 1 0.90094 0.0466394 0.760382
238 1 0.870131 0.182638 0.775873
406 2 0.76295 0.146017 0.839866
4 1 0.834182 0.228958 0.905859
223 1 0.950317 0.169906 0.880357
204 1 0.768651 0.0253112 0.838034
467 2 0.0774084 0.364705 0.997705
241 1 0.151215 0.280273 0.79101
174 1 0.0293603 0.339755 0.856003
173 1 0.156437 0.355642 0.912345
28 1 0.063464 0.452921 0.912126
454 2 0.115694 0.415375 0.814315
244 1 0.2423 0.424676 0.814574
262 1 0.0253755 0.494826 0.779285
45 1 0.247544 0.467554 0.957438
436 2 0.356989 0.278665 0.791013
226 1 0.262951 0.292353 0.854188
254 1 0.373966 0.434463 0.881824
14 1 0.448419 0.331001 0.836022
29 1 0.323837 0.347892 0.988365
414 2 0.352423 0.473285 0.765013
269 1 0.510663 0.425775 0.903467
234 1 0.721747 0.494156 0.898983
232 1 0.594076 0.491208 0.829676
183 1 0.561697 0.373583 0.787983
240 1 0.674549 0.373327 0.883671
409 2 0.706187 0.449953 0.798831
270 1 0.612282 0.466746 0.968673
185 1 0.58312 0.332062 0.99705
419 2 0.565757 0.317993 0.892785
239 1 0.91827 0.398167 0.801584
48 1 0.826753 0.452654 0.992357
34 1 0.804598 0.368744 0.881032
459 2 0.921327 0.286399 0.818035
224 1 0.913306 0.343451 0.954703
41 1 0.929143 0.483761 0.909549
311 1 0.169839 0.662799 0.231718
309 1 0.178539 0.612445 0.098272
91 1 0.207766 0.538102 0.227577
410 2 0.0557876 0.563164 0.068707
327 1 0.0454687 0.643983 0.14082
268 1 0.127895 0.727605 0.0622816
74 1 0.0837711 0.516995 0.176279
303 1 0.370335 0.535197 0.151005
271 1 0.485931 0.592379 0.0730029
319 1 0.353307 0.709669 0.248601
471 2 0.29328 0.571584 0.074752
339 1 0.333972 0.669083 0.116981
472 2 0.28825 0.610501 0.200576
320 1 0.457444 0.705091 0.159851
30 1 0.38689 0.519807 0.00497442
96 1 0.475221 0.593555 0.228551
425 2 0.584679 0.660877 0.0233238
275 1 0.720815 0.701052 0.219667
276 1 0.588488 0.640128 0.15477
322 1 0.674562 0.729127 0.0975467
258 1 0.692912 0.548147 0.239068
474 2 0.544449 0.53232 0.159697
460 2 0.719501 0.509021 0.0134519
47 1 0.621457 0.548003 0.0727981
261 1 0.959869 0.722846 0.0134713
308 1 0.956462 0.606463 0.219418
279 1 0.86347 0.657546 0.0896427
452 2 0.805022 0.630403 0.186955
42 1 0.755217 0.587583 0.0984439
330 1 0.844815 0.737705 0.20303
98 1 0.826299 0.535062 0.245422
21 1 0.880302 0.525173 0.130888
274 1 0.769416 0.719758 0.0107788
316 1 0.227574 0.75625 0.148651
462 2 0.12478 0.786097 0.189161
7 1 0.11578 0.886977 0.139286
13 1 0.237599 0.922216 0.0876436
105 1 0.216903 0.95345 0.246359
60 1 0.388973 0.97905 0.0514492
338 1 0.488041 0.945056 0.168982
296 1 0.354191 0.812455 0.125544
59 1 0.278245 0.77247 0.0205804
430 2 0.472837 0.819545 0.0684849
61 1 0.373528 0.997134 0.22055
440 2 0.312661 0.92233 0.170283
300 1 0.601831 0.929721 0.237085
342 1 0.544241 0.825408 0.175935
295 1 0.57222 0.800267 0.0408316
349 1 0.641788 0.894228 0.116468
340 1 0.517998 0.928789 0.0449114
444 2 0.883929 0.777538 0.0879608
252 1 0.987763 0.780534 0.141849
69 1 0.773092 0.851571 0.126084
464 2 0.980925 0.830198 0.0301509
283 1 0.970467 0.911414 0.115773
328 1 0.872938 0.878306 0.02457
456 2 0.846855 0.923944 0.156688
109 1 0.933526 0.944097 0.239288
324 1 0.766927 0.999835 0.0196853
451 2 0.155601 0.58977 0.325174
463 2 0.243047 0.748981 0.28487
302 1 0.125973 0.552495 0.421428
369 1 0.226708 0.624109 0.479557
329 1 0.00720783 0.640957 0.392752
399 2 0.0372988 0.550004 0.275382
263 1 0.144286 0.690413 0.376865
325 1 0.0339259 0.710166 0.266254
386 2 0.452742 0.636231 0.453705
122 1 0.352644 0.565457 0.440635
94 1 0.471357 0.551094 0.385237
315 1 0.276885 0.652332 0.35749
301 1 0.356199 0.568581 0.283799
304 1 0.364666 0.696165 0.475756
341 1 0.487344 0.689183 0.339367
323 1 0.688113 0.596765 0.375174
469 2 0.721127 0.514866 0.447462
337 1 0.584179 0.723005 0.255026
388 2 0.571038 0.630516 0.403731
346 1 0.640166 0.716025 0.407841
445 2 0.727375 0.638566 0.468093
128 1 0.539079 0.715524 0.48139
397 2 0.617913 0.620161 0.27376
385 2 0.738126 0.748736 0.442838
306 1 0.581061 0.5163 0.305031
405 2 0.776522 0.622065 0.307135
326 1 0.822604 0.577122 0.441942
363 1 0.95311 0.531511 0.449952
350 1 0.881201 0.637524 0.322466
387 2 0.902664 0.652195 0.444161
375 1 0.788571 0.730894 0.339054
367 1 0.0386867 0.895875 0.498454
335 1 0.147103 0.827946 0.286072
299 1 0.0693408 0.945708 0.263673
127 1 0.0388194 0.987174 0.393922
344 1 0.00288696 0.855652 0.332108
314 1 0.161439 0.913568 0.394447
169 1 0.0757976 0.788608 0.403744
331 1 0.294788 0.848942 0.253134
357 1 0.267585 0.925535 0.48894
371 1 0.346602 0.782224 0.358504
318 1 0.254854 0.767829 0.449976
321 1 0.435571 0.813109 0.260671
396 2 0.349246 0.829166 0.472475
156 1 0.430158 0.902158 0.441253
395 2 0.455892 0.766854 0.418275
368 1 0.310663 0.935158 0.356188
372 1 0.49609 0.953638 0.339497
118 1 0.653601 0.968568 0.377559
398 2 0.626594 0.822624 0.490575
347 1 0.683488 0.821106 0.258336
163 1 0.708079 0.843324 0.388317
317 1 0.543747 0.810107 0.355383
66 1 0.558954 0.902169 0.457505
117 1 0.683873 0.92881 0.49249
373 1 0.786555 0.952487 0.397895
391 2 0.952206 0.759028 0.377594
132 1 0.866422 0.753131 0.453818
167 1 0.900731 0.870195 0.419036
65 1 0.860723 0.83193 0.299014
284 1 0.767622 0.949849 0.250223
155 1 0.932996 0.978437 0.486308
351 1 0.0622987 0.653408 0.631768
381 1 0.162482 0.707683 0.703174
195 1 0.184299 0.600456 0.622046
376 1 0.0714316 0.555138 0.536831
358 1 0.0130897 0.508023 0.64715
366 1 0.127083 0.693389 0.513338
411 2 0.135614 0.58929 0.733619
421 2 0.240139 0.523762 0.533903
416 2 0.262977 0.681719 0.620261
126 1 0.381863 0.681193 0.65783
439 2 0.480966 0.530781 0.636975
196 1 0.328705 0.593865 0.582
377 1 0.491534 0.543041 0.532248
265 1 0.270474 0.610118 0.729588
417 2 0.460945 0.720928 0.734618
266 1 0.394929 0.568589 0.724323
435 2 0.280326 0.727095 0.731328
466 2 0.59705 0.556078 0.619516
230 1 0.671928 0.565095 0.743333
291 1 0.623895 0.677297 0.665189
293 1 0.669636 0.723129 0.540459
197 1 0.701705 0.574458 0.609776
194 1 0.513814 0.649734 0.614853
157 1 0.528435 0.597077 0.741962
359 1 0.613187 0.591453 0.503348
461 2 0.960341 0.602076 0.67507
427 2 0.75423 0.670056 0.656417
423 2 0.810876 0.562931 0.557943
281 1 0.922247 0.62844 0.55996
165 1 0.835194 0.719493 0.714784
364 1 0.831336 0.584969 0.680517
198 1 0.807432 0.682192 0.554661
389 2 0.899817 0.729471 0.607644
429 2 0.969524 0.720062 0.733055
151 1 0.995514 0.738914 0.507319
431 2 0.114131 0.753871 0.616645
384 1 0.1641 0.828618 0.529604
103 1 0.12089 0.969114 0.586392
413 2 0.230523 0.919945 0.600711
225 1 0.0903085 0.937005 0.732628
285 1 0.177665 0.833563 0.662939
153 1 0.000752336 0.785067 0.639296
205 1 0.214005 0.989053 0.729247
360 1 0.455325 0.818343 0.544336
313 1 0.304334 0.779651 0.576632
394 2 0.374954 0.920777 0.565263
131 1 0.424359 0.841225 0.676112
57 1 0.344089 0.989236 0.660599
400 2 0.450479 0.96067 0.676417
53 1 0.302417 0.849413 0.682758
152 1 0.747629 0.987044 0.617019
113 1 0.507037 0.932303 0.587005
420 2 0.660078 0.910356 0.596597
159 1 0.595583 0.912532 0.694366
168 1 0.722134 0.779265 0.647863
370 1 0.574546 0.812418 0.606702
362 1 0.559682 0.792373 0.74008
135 1 0.886873 0.996354 0.614749
434 2 0.776248 0.991612 0.724966
432 2 0.981576 0.945145 0.581084
201 1 0.956108 0.900239 0.703167
361 1 0.782847 0.817717 0.532048
166 1 0.913818 0.853016 0.565888
217 1 0.818202 0.8647 0.654312
447 2 0.818823 0.927738 0.512245
93 1 0.145263 0.535525 0.849417
264 1 0.041709 0.657979 0.776637
161 1 0.176673 0.659667 0.833439
43 1 0.0210282 0.583843 0.900692
288 1 0.235427 0.614708 0.972766
477 2 0.173723 0.715915 0.972306
278 1 0.0779626 0.725302 0.917284
383 1 0.108453 0.617078 0.984631
475 2 0.494458 0.520886 0.96227
267 1 0.370843 0.647488 0.949725
294 1 0.465082 0.724416 0.985398
287 1 0.294761 0.559588 0.850776
289 1 0.379353 0.675795 0.809208
305 1 0.461618 0.539589 0.841077
273 1 0.494045 0.712811 0.845133
9 1 0.2777 0.714282 0.895686
49 1 0.56341 0.618064 0.900106
457 2 0.671911 0.589058 0.847591
247 1 0.644856 0.70654 0.799945
450 2 0.727478 0.688679 0.90602
336 1 0.676863 0.619242 0.970578
248 1 0.633088 0.735725 0.923406
380 1 0.840747 0.503431 0.816072
250 1 0.805534 0.579321 0.954324
478 2 0.984437 0.717924 0.871933
192 1 0.905385 0.609748 0.800827
259 1 0.771889 0.62382 0.812879
249 1 0.869579 0.694762 0.904328
253 1 0.932281 0.598094 0.989199
5 1 0.150078 0.985388 0.956586
280 1 0.0365171 0.801525 0.776227
468 2 0.14445 0.784691 0.799985
209 1 0.0971652 0.866044 0.867865
437 2 0.209037 0.918116 0.842246
251 1 0.0298957 0.920254 0.989418
272 1 0.136903 0.837543 0.988689
6 1 0.267452 0.892924 0.965422
441 2 0.368923 0.96433 0.778086
476 2 0.38325 0.769229 0.927194
104 1 0.254248 0.82389 0.814053
229 1 0.441477 0.984847 0.909305
442 2 0.344644 0.881642 0.87252
212 1 0.492055 0.935827 0.789534
162 1 0.296937 0.983056 0.86809
292 1 0.415909 0.814946 0.807962
11 1 0.406278 0.870432 0.976639
345 1 0.705356 0.842795 0.995681
433 2 0.724065 0.776059 0.755606
17 1 0.641112 0.859794 0.835892
470 2 0.707389 0.923506 0.906292
290 1 0.53217 0.83287 0.89782
215 1 0.615968 0.957507 0.955572
297 1 0.619012 0.98235 0.806944
426 2 0.86807 0.921305 0.774131
208 1 0.98607 0.94909 0.850373
374 1 0.892948 0.806087 0.791872
277 1 0.757147 0.784671 0.876995
203 1 0.963164 0.818365 0.908484
465 2 0.848562 0.802912 0.929142
219 1 0.863151 0.931548 0.88887
170 1 0.765479 0.883208 0.778487
ITEM: TIMESTEP
10000
ITEM: NUMBER OF ATOMS
480
ITEM: BOX BOUNDS pp pp pp
0.0000000000000000e+00 7.3680629972807701e+00
0.0000000000000000e+00 7.3680629972807701e+00
0.0000000000000000e+00 7.3680629972807701e+00
ITEM: ATOMS id type xs ys zs
348 1 0.03063 0.128146 0.0880871
79 1 0.0254993 0.252174 0.159868
2 1 0.186944 0.159951 0.0509206
332 1 0.195318 0.114155 0.210833
422 2 0.11647 0.174345 0.145926
96 1 0.504325 0.481818 0.261118
8 1 0.135538 0.0411492 0.115675
62 1 0.279317 0.225966 0.142197
61 1 0.350646 0.0438194 0.237078
60 1 0.292381 0.0788475 0.107023
31 1 0.425662 0.165645 0.202495
80 1 0.451904 0.0422991 0.114728
378 1 0.513736 0.385117 0.454787
185 1 0.479965 0.366457 0.0309784
255 1 0.697311 0.121334 0.152622
64 1 0.527839 0.183976 0.115253
284 1 0.572485 0.0718584 0.161392
480 2 0.702393 0.234252 0.163526
354 1 0.817203 0.425762 0.44395
70 1 0.632265 0.202864 0.24096
87 1 0.649029 0.188486 0.0478876
95 1 0.277957 0.29451 0.0308091
229 1 0.370943 0.00748942 0.0130068
108 1 0.817057 0.030453 0.192691
88 1 0.9066 0.142748 0.163825
68 1 0.787256 0.180715 0.0659026
286 1 0.894377 0.0444793 0.0650066
472 2 0.29912 0.480245 0.215886
76 1 0.164488 0.261997 0.226148
56 1 0.140674 0.298464 0.0942566
22 1 0.198277 0.418032 0.0507825
401 2 0.0780633 0.347595 0.20544
91 1 0.0621339 0.453668 0.258356
112 1 0.170427 0.402547 0.180828
23 1 0.0436035 0.423197 0.108922
24 1 0.723787 0.40139 0.347131
33 1 0.406518 0.272778 0.0917154
75 1 0.425028 0.305105 0.236963
77 1 0.296662 0.359283 0.168929
258 1 0.640519 0.465658 0.245954
256 1 0.428038 0.416119 0.150105
260 1 0.820297 0.293986 0.439265
29 1 0.333827 0.428349 0.0380461
458 2 0.491114 0.325759 0.146385
20 1 0.722179 0.299049 0.0583531
220 1 0.597038 0.300945 0.107012
410 2 0.960124 0.19678 0.249387
47 1 0.568851 0.430199 0.133994
99 1 0.95852 0.36029 0.224309
467 2 0.987696 0.343368 0.0466085
39 1 0.815781 0.39248 0.219434
479 2 0.807998 0.342333 0.119662
72 1 0.895511 0.277949 0.0966268
21 1 0.890427 0.425671 0.104544
97 1 0.804636 0.261474 0.198127
42 1 0.72083 0.437675 0.115092
409 2 0.801123 0.455786 0.0273162
101 1 0.0422836 0.129378 0.249016
55 1 0.14605 0.197849 0.345809
403 2 0.097663 0.0828284 0.375454
334 1 0.138147 0.1311 0.477239
368 1 0.243185 0.0529203 0.329223
102 1 0.0104359 0.177897 0.383042
449 2 0.112029 0.482952 0.354357
448 2 0.218111 0.0676886 0.458763
333 1 0.270861 0.170545 0.419718
81 1 0.303181 0.188994 0.280768
106 1 0.405914 0.0441807 0.368279
123 1 0.508218 0.247297 0.332634
180 1 0.442388 0.498739 0.397633
117 1 0.661626 0.0208408 0.418612
67 1 0.663349 0.0703775 0.282201
85 1 0.51693 0.101722 0.291088
116 1 0.629262 0.16992 0.381069
372 1 0.522301 0.107548 0.443577
83 1 0.326218 0.0248704 0.482059
19 1 0.781641 0.142377 0.265418
473 2 0.783299 0.186234 0.422521
71 1 0.877889 0.229024 0.321666
343 1 0.809573 0.0837943 0.401543
89 1 0.913107 0.0950331 0.301503
310 1 0.894276 0.371021 0.341865
119 1 0.906893 0.16025 0.48066
73 1 0.147596 0.358493 0.321971
191 1 0.213518 0.480175 0.295441
365 1 0.153593 0.429388 0.459053
138 1 0.27413 0.307266 0.451345
111 1 0.101974 0.300195 0.433635
100 1 0.0203341 0.404359 0.379264
207 1 0.367739 0.165525 0.0184659
146 1 0.275996 0.325202 0.301006
115 1 0.299179 0.447188 0.419875
114 1 0.406265 0.186958 0.416001
125 1 0.0120506 0.00387508 0.352
82 1 0.366724 0.429309 0.297413
46 1 0.391449 0.326101 0.37692
51 1 0.0471913 0.278962 0.290028
215 1 0.758255 0.0270215 0.074108
455 2 0.720062 0.372953 0.449659
109 1 0.724066 0.252836 0.334657
137 1 0.958763 0.298406 0.430452
35 1 0.555794 0.354186 0.245793
474 2 0.474512 0.394474 0.344036
143 1 0.59102 0.47604 0.36813
84 1 0.687009 0.34392 0.207381
124 1 0.618565 0.334604 0.388741
199 1 0.692867 0.255408 0.478319
110 1 0.0143478 0.0682836 0.489112
363 1 0.939505 0.501106 0.436588
314 1 0.11095 0.00603095 0.257143
86 1 0.55382 0.253604 0.470734
50 1 0.926544 0.493176 0.235747
160 1 0.52378 0.0937634 0.0146776
58 1 0.106902 0.146875 0.611446
392 2 0.121141 0.13932 0.736216
222 1 0.234968 0.167564 0.691388
312 1 0.247332 0.122698 0.573241
54 1 0.185521 0.247387 0.533007
92 1 0.316045 0.255771 0.588938
225 1 0.100531 0.023453 0.69987
36 1 0.60472 0.474025 0.987868
171 1 0.0359054 0.220566 0.518913
407 2 0.0343046 0.0458766 0.605699
418 2 0.350357 0.114452 0.637412
176 1 0.538115 0.18625 0.603848
14 1 0.41076 0.206788 0.669395
130 1 0.45955 0.0717112 0.660075
420 2 0.732786 0.0522377 0.522631
416 2 0.552772 0.0760416 0.589798
200 1 0.871721 0.44938 0.888765
224 1 0.954873 0.348231 0.897627
141 1 0.636679 0.207069 0.758738
107 1 0.616339 0.0938216 0.700395
213 1 0.741681 0.039795 0.655251
164 1 0.839689 0.299631 0.84562
443 2 0.693628 0.138638 0.627129
184 1 0.643487 0.115088 0.529029
136 1 0.00209821 0.129534 0.740957
298 1 0.775536 0.205886 0.676801
149 1 0.852943 0.034764 0.567942
145 1 0.963656 0.14345 0.612103
142 1 0.773582 0.159594 0.545202
90 1 0.880024 0.245188 0.584262
406 2 0.894717 0.211882 0.70921
211 1 0.872176 0.0958024 0.693486
178 1 0.195939 0.44057 0.650935
150 1 0.161769 0.302336 0.723436
57 1 0.240836 0.0209598 0.685468
358 1 0.247491 0.382445 0.54626
120 1 0.112278 0.336769 0.599674
356 1 0.0506893 0.397008 0.694514
390 2 0.122844 0.467725 0.567873
428 2 0.213016 0.327465 0.637503
242 1 0.294419 0.363902 0.712581
147 1 0.394832 0.425888 0.5169
415 2 0.497802 0.410315 0.568249
175 1 0.436219 0.286937 0.516018
246 1 0.427795 0.368513 0.661276
129 1 0.133974 0.0111687 0.553012
244 1 0.244637 0.484389 0.777123
182 1 0.525379 0.280561 0.734038
233 1 0.650443 0.255847 0.60617
231 1 0.579844 0.376121 0.642503
133 1 0.771573 0.32502 0.566769
379 1 0.724802 0.474421 0.518967
38 1 0.881963 0.192762 0.960662
186 1 0.716564 0.336494 0.692225
144 1 0.0254828 0.24772 0.662849
424 2 0.979701 0.30114 0.560688
187 1 0.89479 0.391649 0.572026
190 1 0.85797 0.341109 0.700215
402 2 0.903773 0.407465 0.78389
230 1 0.790103 0.454895 0.63761
188 1 0.0279687 0.417814 0.525293
28 1 0.962205 0.465017 0.993359
459 2 0.0525334 0.228468 0.77211
243 1 0.211974 0.0842361 0.805648
221 1 0.0726751 0.0805557 0.849694
10 1 0.110017 0.0384621 0.989079
174 1 0.118794 0.174624 0.933004
223 1 0.986578 0.195394 0.866094
193 1 0.157139 0.203938 0.810874
179 1 0.353699 0.0942537 0.757053
436 2 0.315115 0.126555 0.861369
239 1 0.969076 0.310172 0.767402
16 1 0.239961 0.0722327 0.939358
236 1 0.272542 0.22493 0.907749
206 1 0.407116 0.206127 0.839498
240 1 0.631843 0.328948 0.957036
37 1 0.508819 0.236831 0.985787
453 2 0.678876 0.457779 0.623908
210 1 0.512621 0.130124 0.785878
290 1 0.598484 0.056709 0.846217
237 1 0.606032 0.190831 0.888739
297 1 0.690948 0.0972148 0.960411
40 1 0.8417 0.338006 0.985601
214 1 0.519403 0.347264 0.894502
419 2 0.508382 0.137064 0.897275
218 1 0.730468 0.122644 0.807995
3 1 0.81309 0.0716238 0.907263
4 1 0.866123 0.172163 0.826047
52 1 0.982781 0.101269 0.961957
238 1 0.925168 0.0224741 0.837243
412 2 0.145781 0.447341 0.755871
93 1 0.136515 0.468097 0.880633
173 1 0.171988 0.302909 0.957712
45 1 0.0670617 0.388164 0.970593
262 1 0.0831793 0.346255 0.8372
226 1 0.230975 0.349806 0.842969
241 1 0.295412 0.248338 0.780954
254 1 0.269726 0.468259 0.917089
454 2 0.274806 0.353253 0.943966
475 2 0.325745 0.423292 0.828842
245 1 0.40658 0.34031 0.793384
257 1 0.380477 0.48447 0.742305
12 1 0.393922 0.316589 0.928191
269 1 0.51808 0.410167 0.762323
49 1 0.42239 0.452891 0.911883
48 1 0.730265 0.415294 0.951187
232 1 0.66146 0.465602 0.744341
183 1 0.685593 0.298385 0.833155
18 1 0.763649 0.405702 0.805485
408 2 0.644535 0.407055 0.849287
216 1 0.409581 0.0735804 0.904951
139 1 0.406935 0.13489 0.53792
181 1 0.623964 0.369205 0.522476
41 1 0.995131 0.460705 0.824279
34 1 0.75421 0.204587 0.913147
382 1 0.943435 0.472107 0.67154
227 1 0.020411 0.246352 0.995398
306 1 0.538046 0.501476 0.511184
400 2 0.717485 0.0179399 0.78713
311 1 0.132905 0.535175 0.158652
315 1 0.104507 0.792442 0.0877835
339 1 0.183973 0.64391 0.0777577
272 1 0.0416456 0.674829 0.0475227
399 2 0.0259146 0.561456 0.217073
263 1 0.0442866 0.698883 0.186313
301 1 0.193988 0.671311 0.204316
78 1 0.260685 0.525972 0.126603
309 1 0.0925965 0.529174 0.0212206
319 1 0.315348 0.664412 0.106365
357 1 0.25729 0.905628 0.490073
32 1 0.384566 0.541854 0.18022
341 1 0.427087 0.671176 0.173186
463 2 0.301828 0.714865 0.210691
425 2 0.459262 0.641036 0.069119
135 1 0.0372674 0.917674 0.477856
276 1 0.532601 0.589695 0.158729
322 1 0.701767 0.562489 0.156332
397 2 0.613818 0.579977 0.228268
274 1 0.682111 0.688607 0.0272256
347 1 0.629931 0.675742 0.156702
323 1 0.537698 0.692173 0.26063
460 2 0.610216 0.51975 0.0952266
444 2 0.968451 0.766105 0.0620348
74 1 0.969587 0.556464 0.113736
325 1 0.919964 0.635961 0.227045
327 1 0.774741 0.695521 0.144517
308 1 0.781797 0.499515 0.274577
383 1 0.86872 0.670347 0.0486357
303 1 0.330805 0.582516 -0.00463232
228 1 0.842439 0.541533 0.138869
6 1 0.227207 0.949716 0.0661791
462 2 0.0530921 0.809498 0.198631
167 1 0.717353 0.810249 0.498147
316 1 0.237196 0.7662 0.117068
251 1 0.987028 0.869497 0.101502
5 1 0.117315 0.913329 0.165393
270 1 0.455976 0.516568 0.033055
296 1 0.374588 0.796634 0.107768
330 1 0.845727 0.864773 0.363727
13 1 0.358224 0.929958 0.132734
338 1 0.484362 0.900097 0.0609016
321 1 0.503973 0.833518 0.192868
335 1 0.295787 0.842667 0.217076
440 2 0.324983 0.970616 0.340448
25 1 0.107594 0.908638 0.0246073
337 1 0.509779 0.746894 0.0703905
328 1 0.644153 0.83568 0.136445
300 1 0.579943 0.942447 0.253622
445 2 0.730038 0.87812 0.276486
63 1 0.617941 0.984773 0.0693651
349 1 0.70259 0.945698 0.17681
65 1 0.771305 0.981172 0.313284
282 1 0.868448 0.92677 0.126378
324 1 0.780306 0.832777 0.125373
283 1 0.912243 0.767037 0.166363
279 1 0.703023 0.554755 0.0193554
369 1 0.219601 0.562491 0.402945
366 1 0.168801 0.672843 0.464042
451 2 0.198289 0.65596 0.321459
302 1 0.104102 0.579377 0.29597
105 1 0.236809 0.975496 0.198388
376 1 0.0642515 0.537289 0.459279
367 1 0.0988931 0.732199 0.349333
336 1 0.578048 0.606179 0.0243776
44 1 0.436702 0.593145 0.299988
122 1 0.335056 0.633359 0.40055
196 1 0.425829 0.756918 0.292621
121 1 0.300702 0.6128 0.273377
396 2 0.421338 0.753259 0.411594
94 1 0.471751 0.644845 0.422571
384 1 0.270267 0.73666 0.329534
148 1 0.663156 0.581258 0.481385
204 1 0.72256 0.892707 0.0152652
353 1 0.661317 0.584673 0.339873
359 1 0.595767 0.69098 0.396043
388 2 0.53614 0.592127 0.342618
405 2 0.643004 0.69744 0.295291
345 1 0.600628 0.822483 0.0125104
373 1 0.769549 0.945559 0.468902
275 1 0.768483 0.634278 0.268257
391 2 0.953773 0.885694 0.366848
252 1 0.912094 0.961603 0.262764
465 2 0.760395 0.774102 0.0316476
329 1 0.997835 0.63143 0.37327
98 1 0.786319 0.55691 0.408659
281 1 0.902476 0.643877 0.481825
350 1 0.870331 0.686135 0.356453
387 2 0.891557 0.567285 0.340726
7 1 0.165175 0.797345 0.228544
456 2 0.0294535 0.928687 0.253047
219 1 0.874971 0.822654 0.0233521
385 2 0.86437 0.755325 0.447764
134 1 0.140326 0.982908 0.415243
153 1 0.185287 0.808933 0.424128
169 1 0.0622462 0.880999 0.342659
318 1 0.225846 0.900169 0.312058
293 1 0.548135 0.895957 0.489632
452 2 0.997006 0.512814 0.335153
313 1 0.308011 0.750542 0.474666
304 1 0.489663 0.843141 0.380279
404 2 0.326739 0.52545 0.353214
326 1 0.757232 0.683927 0.469862
371 1 0.352147 0.860056 0.36488
430 2 0.556976 0.923306 0.143172
395 2 0.41667 0.954739 0.439158
471 2 0.224853 0.524209 0.00803814
331 1 0.437877 0.919225 0.279333
346 1 0.602724 0.816089 0.29363
118 1 0.523277 0.97836 0.378848
375 1 0.727043 0.740742 0.345529
163 1 0.700085 0.878778 0.383173
268 1 0.971423 0.778809 0.289984
132 1 0.972491 0.776216 0.420655
69 1 0.811441 0.793469 0.247823
127 1 0.910275 0.99035 0.438111
340 1 0.345043 0.874314 -0.00100586
299 1 0.998113 0.995066 0.152702
320 1 0.401858 0.703993 0.00142649
421 2 0.284496 0.535164 0.496389
264 1 0.169451 0.704909 0.620222
351 1 0.0659093 0.564195 0.776922
172 1 0.191941 0.582538 0.693633
389 2 0.0820266 0.657711 0.704329
26 1 0.170673 0.554928 0.54063
166 1 0.0451575 0.743435 0.646405
457 2 0.849581 0.567022 0.645865
411 2 0.104238 0.794515 0.769393
195 1 0.277911 0.637333 0.554094
435 2 0.258729 0.676687 0.698488
194 1 0.400673 0.576261 0.511823
273 1 0.367839 0.639875 0.657597
360 1 0.389292 0.849495 0.533725
439 2 0.540292 0.573197 0.699514
247 1 0.496643 0.702934 0.732624
466 2 0.743542 0.58904 0.55025
157 1 0.624 0.557607 0.611738
377 1 0.509817 0.64483 0.597968
197 1 0.619728 0.699042 0.541752
417 2 0.547988 0.760218 0.630213
154 1 0.879186 0.899048 0.850827
307 1 0.0738614 0.533142 0.634799
362 1 0.655362 0.695754 0.676862
234 1 0.744199 0.567312 0.696833
433 2 0.94308 0.56804 0.748345
291 1 0.825844 0.65682 0.589957
202 1 0.732513 0.957526 0.885866
364 1 0.955372 0.623256 0.640728
192 1 0.847289 0.650343 0.732656
267 1 0.265655 0.70256 0.978246
198 1 0.941101 0.749249 0.559685
461 2 0.914905 0.734419 0.67585
434 2 0.806885 0.845 0.929889
427 2 0.840189 0.788436 0.579158
128 1 0.502088 0.760444 0.508924
381 1 0.204963 0.891574 0.619686
151 1 0.0900221 0.779659 0.514162
103 1 0.141641 0.907036 0.751601
429 2 0.133585 0.819602 0.662746
201 1 0.0595645 0.900822 0.640495
285 1 0.215887 0.781067 0.756822
431 2 0.207277 0.782373 0.535629
126 1 0.292272 0.780253 0.617188
292 1 0.422554 0.755671 0.621107
212 1 0.479356 0.985084 0.774534
413 2 0.31999 0.891679 0.612633
156 1 0.418512 0.885923 0.666499
441 2 0.361601 0.987421 0.722526
205 1 0.293082 0.885926 0.722507
9 1 0.356496 0.73653 0.752421
278 1 0.142648 0.714535 0.96215
394 2 0.490591 0.875598 0.58595
113 1 0.545172 0.829437 0.723558
398 2 0.59179 0.983601 0.753926
370 1 0.622664 0.831454 0.590414
131 1 0.671439 0.918659 0.674632
66 1 0.5477 0.955483 0.643423
446 2 0.654437 0.805281 0.727274
344 1 0.888775 0.865151 0.506569
170 1 0.733567 0.865406 0.787983
155 1 0.957447 0.969648 0.572255
168 1 0.778134 0.770059 0.666277
361 1 0.78505 0.897675 0.599759
217 1 0.91322 0.85094 0.657999
447 2 0.00285173 0.849111 0.559586
393 2 0.248783 0.988848 0.569367
189 1 0.963667 0.989063 0.712679
374 1 0.864173 0.767441 0.804465